s 0.000000000 _0_ RTR  --- 0 ADIAN 28 [0 0 0 0] ------- [0:255 -1:255 1 0] [adian 1 PING] 
s 0.000000000 _1_ RTR  --- 1 ADIAN 28 [0 0 0 0] ------- [1:255 -1:255 1 0] [adian 2 PING] 
r 0.000828634 _1_ RTR  --- 0 ADIAN 28 [0 ffffffff 0 800] ------- [0:255 -1:255 1 0] [adian 1 PING] 
s 0.000828634 _1_ RTR  --- 2 ADIAN 28 [0 0 0 0] ------- [1:255 0:255 1 0] [adian 1 PING REPLY] 
r 0.002087268 _0_ RTR  --- 1 ADIAN 28 [0 ffffffff 1 800] ------- [1:255 -1:255 1 0] [adian 2 PING] 
s 0.002087268 _0_ RTR  --- 3 ADIAN 28 [0 0 0 0] ------- [0:255 1:255 1 1] [adian 2 PING REPLY] 
r 0.005509803 _0_ RTR  --- 2 ADIAN 28 [13a 0 1 800] ------- [1:255 0:255 1 0] [adian 1 PING REPLY] 
r 0.007299704 _1_ RTR  --- 3 ADIAN 28 [13a 1 0 800] ------- [0:255 1:255 1 1] [adian 2 PING REPLY] 
s 2.000000000 _0_ RTR  --- 4 ADIAN 28 [0 0 0 0] ------- [0:255 -1:255 1 0] [adian 3 PING] 
s 2.000000000 _1_ RTR  --- 5 ADIAN 28 [0 0 0 0] ------- [1:255 -1:255 1 0] [adian 4 PING] 
r 2.000948634 _0_ RTR  --- 5 ADIAN 28 [0 ffffffff 1 800] ------- [1:255 -1:255 1 0] [adian 4 PING] 
s 2.000948634 _0_ RTR  --- 6 ADIAN 28 [0 0 0 0] ------- [0:255 1:255 1 1] [adian 4 PING REPLY] 
r 2.002067268 _1_ RTR  --- 4 ADIAN 28 [0 ffffffff 0 800] ------- [0:255 -1:255 1 0] [adian 3 PING] 
s 2.002067268 _1_ RTR  --- 7 ADIAN 28 [0 0 0 0] ------- [1:255 0:255 1 0] [adian 3 PING REPLY] 
r 2.003693169 _0_ RTR  --- 7 ADIAN 28 [13a 0 1 800] ------- [1:255 0:255 1 0] [adian 3 PING REPLY] 
r 2.005463070 _1_ RTR  --- 6 ADIAN 28 [13a 1 0 800] ------- [0:255 1:255 1 1] [adian 4 PING REPLY] 
s 4.000000000 _0_ RTR  --- 8 ADIAN 28 [0 0 0 0] ------- [0:255 -1:255 1 0] [adian 5 PING] 
s 4.000000000 _1_ RTR  --- 9 ADIAN 28 [0 0 0 0] ------- [1:255 -1:255 1 0] [adian 6 PING] 
r 4.000988634 _0_ RTR  --- 9 ADIAN 28 [0 ffffffff 1 800] ------- [1:255 -1:255 1 0] [adian 6 PING] 
s 4.000988634 _0_ RTR  --- 10 ADIAN 28 [0 0 0 0] ------- [0:255 1:255 1 1] [adian 6 PING REPLY] 
r 4.001847268 _1_ RTR  --- 8 ADIAN 28 [0 ffffffff 0 800] ------- [0:255 -1:255 1 0] [adian 5 PING] 
s 4.001847268 _1_ RTR  --- 11 ADIAN 28 [0 0 0 0] ------- [1:255 0:255 1 0] [adian 5 PING REPLY] 
r 4.003282535 _1_ RTR  --- 10 ADIAN 28 [13a 1 0 800] ------- [0:255 1:255 1 1] [adian 6 PING REPLY] 
r 4.005092437 _0_ RTR  --- 11 ADIAN 28 [13a 0 1 800] ------- [1:255 0:255 1 0] [adian 5 PING REPLY] 
s 6.000000000 _0_ RTR  --- 12 ADIAN 28 [0 0 0 0] ------- [0:255 -1:255 1 0] [adian 7 PING] 
s 6.000000000 _1_ RTR  --- 13 ADIAN 28 [0 0 0 0] ------- [1:255 -1:255 1 0] [adian 8 PING] 
r 6.000968634 _1_ RTR  --- 12 ADIAN 28 [0 ffffffff 0 800] ------- [0:255 -1:255 1 0] [adian 7 PING] 
s 6.000968634 _1_ RTR  --- 14 ADIAN 28 [0 0 0 0] ------- [1:255 0:255 1 0] [adian 7 PING REPLY] 
r 6.002107268 _0_ RTR  --- 13 ADIAN 28 [0 ffffffff 1 800] ------- [1:255 -1:255 1 0] [adian 8 PING] 
s 6.002107268 _0_ RTR  --- 15 ADIAN 28 [0 0 0 0] ------- [0:255 1:255 1 1] [adian 8 PING REPLY] 
r 6.003933169 _1_ RTR  --- 15 ADIAN 28 [13a 1 0 800] ------- [0:255 1:255 1 1] [adian 8 PING REPLY] 
r 6.005803070 _0_ RTR  --- 14 ADIAN 28 [13a 0 1 800] ------- [1:255 0:255 1 0] [adian 7 PING REPLY] 
s 8.000000000 _0_ RTR  --- 16 ADIAN 28 [0 0 0 0] ------- [0:255 -1:255 1 0] [adian 9 PING] 
s 8.000000000 _1_ RTR  --- 17 ADIAN 28 [0 0 0 0] ------- [1:255 -1:255 1 0] [adian 10 PING] 
r 8.000928634 _0_ RTR  --- 17 ADIAN 28 [0 ffffffff 1 800] ------- [1:255 -1:255 1 0] [adian 10 PING] 
s 8.000928634 _0_ RTR  --- 18 ADIAN 28 [0 0 0 0] ------- [0:255 1:255 1 1] [adian 10 PING REPLY] 
r 8.001887268 _1_ RTR  --- 16 ADIAN 28 [0 ffffffff 0 800] ------- [0:255 -1:255 1 0] [adian 9 PING] 
s 8.001887268 _1_ RTR  --- 19 ADIAN 28 [0 0 0 0] ------- [1:255 0:255 1 0] [adian 9 PING REPLY] 
r 8.003553169 _0_ RTR  --- 19 ADIAN 28 [13a 0 1 800] ------- [1:255 0:255 1 0] [adian 9 PING REPLY] 
r 8.005323070 _1_ RTR  --- 18 ADIAN 28 [13a 1 0 800] ------- [0:255 1:255 1 1] [adian 10 PING REPLY] 
M 10.00000 0 (5.00, 2.00, 0.00), (20.00, 18.00), 1.00
s 10.000000000 _0_ AGT  --- 20 tcp 40 [0 0 0 0] ------- [0:0 1:0 32 0] [0 0] 0 0
r 10.000000000 _0_ RTR  --- 20 tcp 40 [0 0 0 0] ------- [0:0 1:0 32