s -t 0.000000000 -Hs 0 -Hd -2 -Ni 0 -Nx 80.00 -Ny 200.00 -Nz 0.00 -Ne -1.000000 -Nl AGT -Nw --- -Ma 0 -Md 0 -Ms 0 -Mt 0 -Is 0.0 -Id 2.0 -It tcp -Il 40 -If 0 -Ii 0 -Iv 32 -Pn tcp -Ps 0 -Pa 0 -Pf 0 -Po 0 
r -t 0.000000000 -Hs 0 -Hd -2 -Ni 0 -Nx 80.00 -Ny 200.00 -Nz 0.00 -Ne -1.000000 -Nl RTR -Nw --- -Ma 0 -Md 0 -Ms 0 -Mt 0 -Is 0.0 -Id 2.0 -It tcp -Il 40 -If 0 -Ii 0 -Iv 32 -Pn tcp -Ps 0 -Pa 0 -Pf 0 -Po 0 
d -t 0.000000000 -Hs 0 -Hd -2 -Ni 0 -Nx 80.00 -Ny 200.00 -Nz 0.00 -Ne -1.000000 -Nl RTR -Nw NRTE -Ma 0 -Md 0 -Ms 0 -Mt 0 -Is 0.0 -Id 2.0 -It tcp -Il 40 -If 0 -Ii 0 -Iv 31 -Pn tcp -Ps 0 -Pa 0 -Pf 0 -Po 0 
s -t 0.000000000 -Hs 0 -Hd -1 -Ni 0 -Nx 80.00 -Ny 200.00 -Nz 0.00 -Ne -1.000000 -Nl RTR -Nw --- -Ma 0 -Md 0 -Ms 0 -Mt 0 -Is 0.255 -Id -1.255 -It ADIAN -Il 28 -If 0 -Ii 1 -Iv 1 -adian:s 2 (PING) 
s -t 0.000000000 -Hs 1 -Hd -1 -Ni 1 -Nx 100.00 -Ny 150.00 -Nz 0.00 -Ne -1.000000 -Nl RTR -Nw --- -Ma 0 -Md 0 -Ms 0 -Mt 0 -Is 1.255 -Id -1.255 -It ADIAN -Il 28 -If 0 -Ii 2 -Iv 1 -adian:s 3 (PING) 
s -t 0.000000000 -Hs 2 -Hd -1 -Ni 2 -Nx 320.00 -Ny 50.00 -Nz 0.00 -Ne -1.000000 -Nl RTR -Nw --- -Ma 0 -Md 0 -Ms 0 -Mt 0 -Is 2.255 -Id -1.255 -It ADIAN -Il 28 -If 0 -Ii 3 -Iv 1 -adian:s 4 (PING) 
s -t 0.000115000 -Hs 0 -Hd -1 -Ni 0 -Nx 80.00 -Ny 200.00 -Nz 0.00 -Ne -1.000000 -Nl MAC -Nw --- -Ma 0 -Md ffffffff -Ms 0 -Mt 800 -Is 0.255 -Id -1.255 -It ADIAN -Il 86 -If 0 -Ii 1 -Iv 1 -adian:s 2 (PING) 
r -t 0.000803180 -Hs 1 -Hd -1 -Ni 1 -Nx 100.00 -Ny 150.00 -Nz 0.00 -Ne -1.000000 -Nl MAC -Nw --- -Ma 0 -Md ffffffff -Ms 0 -Mt 800 -Is 0.255 -Id -1.255 -It ADIAN -Il 28 -If 0 -Ii 1 -Iv 1 -adian:s 2 (PING) 
r -t 0.000828180 -Hs 1 -Hd -1 -Ni 1 -Nx 100.00 -Ny 150.00 -Nz 0.00 -Ne -1.000000 -Nl RTR -Nw --- -Ma 0 -Md ffffffff -Ms 0 -Mt 800 -Is 0.255 -Id -1.255 -It ADIAN -Il 28 -If 0 -Ii 1 -Iv 1 -adian:s 2 (PING) 
s -t 0.000828180 -Hs 1 -Hd 0 -Ni 1 -Nx 100.00 -Ny 150.00 -Nz 0.00 -Ne -1.000000 -Nl RTR -Nw --- -Ma 0 -Md 0 -Ms 0 -Mt 0 -Is 1.255 -Id 0.255 -It ADIAN -Il 28 -If 0 -Ii 4 -Iv 1 -adian:s 2 (PING REPLY) 
s -t 0.001373180 -Hs 1 -Hd -1 -Ni 1 -Nx 100.00 -Ny 150.00 -Nz 0.00 -Ne -1.000000 -Nl MAC -Nw --- -Ma 0 -Md ffffffff -Ms 1 -Mt 800 -Is 1.255 -Id -1.255 -It ADIAN -Il 86 -If 0 -Ii 2 -Iv 1 -adian:s 3 (PING) 
r -t 0.002061359 -Hs 0 -Hd -1 -Ni 0 -Nx 80.00 -Ny 200.00 -Nz 0.00 -Ne -1.000000 -Nl MAC -Nw --- -Ma 0 -Md ffffffff -Ms 1 -Mt 800 -Is 1.255 -Id -1.255 -It ADIAN -Il 28 -If 0 -Ii 2 -Iv 1 -adian:s 3 (PING) 
r -t 0.002061985 -Hs 2 -Hd -1 -Ni 2 -Nx 320.00 -Ny 50.00 -Nz 0.00 -Ne -1.000000 -Nl MAC -Nw --- -Ma 0 -Md ffffffff -Ms 1 -Mt 800 -Is 1.255 -Id -1.255 -It ADIAN -Il 28 -If 0 -Ii 2 -Iv 1 -adian:s 3 (PING) 
r -t 0.002086359 -Hs 0 -Hd -1 -Ni 0 -Nx 80.00 -Ny 200.00 -Nz 0.00 -Ne -1.000000 -Nl RTR -Nw --- -Ma 0 -Md ffffffff -Ms 1 -Mt 800 -Is 1.255 -Id -1.255 -It ADIAN -Il 28 -If 0 -Ii 2 -Iv 1 -adian:s 3 (PING) 
s -t 0.002086359 -Hs 0 -Hd 1 -Ni 0 -Nx 80.00 -Ny 200.00 -Nz 0.00 -Ne -1.000000 -Nl RTR -Nw --- -Ma 0 -Md 0 -Ms 0 -Mt 0 -Is 0.255 -Id 1.255 -It ADIAN -Il 28 -If 0 -Ii 5 -Iv 1 -adian:s 3 (PING REPLY) 
r -t 0.002086985 -Hs 2 -Hd -1 -Ni 2 -Nx 320.00 -Ny 50.00 -Nz 0.00 -Ne -1.000000 -Nl RTR -Nw --- -Ma 0 -Md ffffffff -Ms 1 -Mt 800 -Is 1.255 -Id -1.255 -It ADIAN -Il 28 -If 0 -Ii 2 -Iv 1 -adian:s 3 (PING) 
s -t 0.002086985 -Hs 2 -Hd 1 -Ni 2 -Nx 320.00 -Ny 50.00 -Nz 0.00 -Ne -1.000000 -Nl RTR -Nw --- -Ma 0 -Md 0 -Ms 0 -Mt 0 -Is 2.255 -Id 1.255 -It ADIAN -Il 28 -If 0 -Ii 6 -Iv 1 -adian:s 3 (PING REPLY) 
s -t 0.002111180 -Hs 1 -Hd -2 -Ni 1 -Nx 100.00 -Ny 150.00 -Nz 0.00 -Ne -1.000000 -Nl MAC -Nw --- -Ma 0 -Md ffffffff -Ms 1 -Mt 806 -P arp -Po REQUEST -Pms 1 -Ps 1 -Pmd 0 -Pd 0 
r -t 0.002799359 -Hs 0 -Hd -2 -Ni 0 -Nx 80.00 -Ny 200.00 -Nz 0.00 -Ne -1.000000 -Nl MAC -Nw --- -Ma 0 -Md ffffffff -Ms 1 -Mt 806 -P arp -Po REQUEST -Pms 1 -Ps 1 -Pmd 0 -Pd 0 
r -t 0.002799985 -Hs 2 -Hd -2 -Ni 2 -Nx 320.00 -Ny 50.00 -Nz 0.00 -Ne -1.000000 -Nl MAC -Nw --- -Ma 0 -Md ffffffff -Ms 1 -Mt 806 -P arp -Po REQUEST -Pms 1 -Ps 1 -Pmd 0 -Pd 0 
s -t 0.002969985 -Hs 2 -Hd -1 -Ni 2 -Nx 320.00 -Ny 50.00 -Nz 0.00 -Ne -1.000000 -Nl MAC -Nw --- -Ma 0 -Md ffffffff -Ms 2 -Mt 800 -Is 2.255 -Id -1.255 -It ADIAN -Il 86 -If 0 -Ii 3 -Iv 1 -adian:s 4 (PING) 
r -t 0.003658791 -Hs 1 -Hd -1 -Ni 1 -Nx 100.00 -Ny 150.00 -Nz 0.00 -Ne -1.000000 -Nl MAC -Nw --- -Ma 0 -Md ffffffff -Ms 2 -Mt 800 -Is 2.255 -Id -1.255 -It ADIAN -Il 28 -If 0 -Ii 3 -Iv 1 -adian:s 4 (PING) 
r -t 0.003683791 -Hs 1 -Hd -1 -Ni 1 -Nx 100.00 -Ny 150.00 -Nz 0.00 -Ne -1.000000 -Nl RTR -Nw --- -Ma 0 -Md ffffffff -Ms 2 -Mt 800 -Is 2.255 -Id -1.255 -It ADIAN -Il 28 -If 0 -Ii 3 -Iv 1 -adian:s 4 (PING) 
s -t 0.003683791 -Hs 1 -Hd 2 -Ni 1 -Nx 100.00 -Ny 150.00 -Nz 0.00 -Ne -1.000000 -Nl RTR -Nw --- -Ma 0 -Md 0 -Ms 0 -Mt 0 -Is 1.255 -Id 2.255 -It ADIAN -Il 28 -If 0 -Ii 7 -Iv 1 -adian:s 4 (PING REPLY) 
s -t 0.003788791 -Hs 1 -Hd -2 -Ni 1 -Nx 100.00 -Ny 150.00 -Nz 0.00 -Ne -1.000000 -Nl MAC -Nw --- -Ma 0 -Md ffffffff -Ms 1 -Mt 806 -P arp -Po REQUEST -Pms 1 -Ps 1 -Pmd 0 -Pd 2 
r -t 0.004476970 -Hs 0 -Hd -2 -Ni 0 -Nx 80.00 -Ny 200.00 -Nz 0.00 -Ne -1.000000 -Nl MAC -Nw --- -Ma 0 -Md ffffffff -Ms 1 -Mt 806 -P arp -Po REQUEST -Pms 1 -Ps 1 -Pmd 0 -Pd 2 
r -t 0.004477596 -Hs 2 -Hd -2 -Ni 2 -Nx 320.00 -Ny 50.00 -Nz 0.00 -Ne -1.000000 -Nl MAC -Nw --- -Ma 0 -Md ffffffff -Ms 1 -Mt 806 -P arp -Po REQUEST -Pms 1 -Ps 1 -Pmd 0 -Pd 2 
s -t 0.004566970 -Hs 0 -Hd -2 -Ni 0 -Nx 80.00 -Ny 200.00 -Nz 0.00 -Ne -1.000000 -Nl MAC -Nw --- -Ma 0 -Md ffffffff -Ms 0 -Mt 806 -P arp -Po REQUEST -Pms 0 -Ps 0 -Pmd 0 -Pd 1 
r -t 0.005255150 -Hs 1 -Hd -2 -Ni 1 -Nx 100.00 -Ny 150.00 -Nz 0.00 -Ne -1.000000 -Nl MAC -Nw --- -Ma 0 -Md ffffffff -Ms 0 -Mt 806 -P arp -Po REQUEST -Pms 0 -Ps 0 -Pmd 0 -Pd 1 
s -t 0.005564970 -Hs 0 -Hd -2 -Ni 0 -Nx 80.00 -Ny 200.00 -Nz 0.00 -Ne -1.000000 -Nl MAC -Nw --- -Ma 52e -Md 1 -Ms 0 -Mt 0 
r -t 0.005917150 -Hs 1 -Hd -2 -Ni 1 -Nx 100.00 -Ny 150.00 -Nz 0.00 -Ne -1.000000 -Nl MAC -Nw --- -Ma 52e -Md 1 -Ms 0 -Mt 0 
s -t 0.005927150 -Hs 1 -Hd -2 -Ni 1 -Nx 100.00 -Ny 150.00 -Nz 0.00 -Ne -1.000000 -Nl MAC -Nw --- -Ma 3f4 -Md 0 -Ms 0 -Mt 0 
r -t 0.006231329 -Hs 0 -Hd -2 -Ni 0 -Nx 80.00 -Ny 200.00 -Nz 0.00 -Ne -1.000000 -Nl MAC -Nw --- -Ma 3f4 -Md 0 -Ms 0 -Mt 0 
s -t 0.006241329 -Hs 0 -Hd 1 -Ni 0 -Nx 80.00 -Ny 200.00 -Nz 0.00 -Ne -1.000000 -Nl MAC -Nw --- -Ma 13a -Md 1 -Ms 0 -Mt 800 -Is 0.255 -Id 1.255 -It ADIAN -Il 86 -If 0 -Ii 5 -Iv 1 -adian:s 3 (PING REPLY) 
r -t 0.006929509 -Hs 1 -Hd 1 -Ni 1 -Nx 100.00 -Ny 150.00 -Nz 0.00 -Ne -1.000000 -Nl MAC -Nw --- -Ma 13a -Md 1 -Ms 0 -Mt 800 -Is 0.255 -Id 1.255 -It ADIAN -Il 28 -If 0 -Ii 5 -Iv 1 -adian:s 3 (PING REPLY) 
s -t 0.006939509 -Hs 1 -Hd -2 -Ni 1 -Nx 100.00 -Ny 150.00 -Nz 0.00 -Ne -1.000000 -Nl MAC -Nw --- -Ma 0 -Md 0 -Ms 0 -Mt 0 
r -t 0.006954509 -Hs 1 -Hd 1 -Ni 1 -Nx 100.00 -Ny 150.00 -Nz 0.00 -Ne -1.000000 -Nl RTR -Nw --- -Ma 13a -Md 1 -Ms 0 -Mt 800 -Is 0.255 -Id 1.255 -It ADIAN -Il 28 -If 0 -Ii 5 -Iv 1 -adian:s 3 (PING REPLY) 
r -t 0.007243688 -Hs 0 -Hd -2 -Ni 0 -Nx 80.00 -Ny 200.00 -Nz 0.00 -Ne -1.000000 -Nl MAC -Nw --- -Ma 0 -Md 0 -Ms 0 -Mt 0 
s -t 0.007353509 -Hs 1 -Hd -2 -Ni 1 -Nx 100.00 -Ny 150.00 -Nz 0.00 -Ne -1.000000 -Nl MAC -Nw --- -Ma 52e -Md 0 -Ms 1 -Mt 0 
r -t 0.007705688 -Hs 0 -Hd -2 -Ni 0 -Nx 80.00 -Ny 200.00 -Nz 0.00 -Ne -1.000000 -Nl MAC -Nw --- -Ma 52e -Md 0 -Ms 1 -Mt 0 
s -t 0.007715688 -Hs 0 -Hd -2 -Ni 0 -Nx 80.00 -Ny 200.00 -Nz 0.00 -Ne -1.000000 -Nl MAC -Nw --- -Ma 3f4 -Md 1 -Ms 0 -Mt 0 
r -t 0.008019868 -Hs 1 -Hd -2 -Ni 1 -Nx 100.00 -Ny 150.00 -Nz 0.00 -Ne -1.000000 -Nl MAC -Nw --- -Ma 3f4 -Md 1 -Ms 0 -Mt 0 
s -t 0.008029868 -Hs 1 -Hd 0 -Ni 1 -Nx 100.00 -Ny 150.00 -Nz 0.00 -Ne -1.000000 -Nl MAC -Nw --- -Ma 13a -Md 0 -Ms 1 -Mt 800 -Is 1.255 -Id 0.255 -It ADIAN -Il 86 -If 0 -Ii 4 -Iv 1 -adian:s 2 (PING REPLY) 
r -t 0.008718047 -Hs 0 -Hd 0 -Ni 0 -Nx 80.00 -Ny 200.00 -Nz 0.00 -Ne -1.000000 -Nl MAC -Nw --- -Ma 13a -Md 0 -Ms 1 -Mt 800 -Is 1.255 -Id 0.255 -It ADIAN -Il 28 -If 0 -Ii 4 -Iv 1 -adian:s 2 (PING REPLY) 
s -t 0.008728047 -Hs 0 -Hd -2 -Ni 0 -Nx 80.00 -Ny 200.00 -Nz 0.00 -Ne -1.000000 -Nl MAC -Nw --- -Ma 0 -Md 1 -Ms 0 -Mt 0 
r -t 0.008743047 -Hs 0 -Hd 0 -Ni 0 -Nx 80.00 -Ny 200.00 -Nz 0.00 -Ne -1.000000 -Nl RTR -Nw --- -Ma 13a -Md 0 -Ms 1 -Mt 800 -Is 1.255 -Id 0.255 -It ADIAN -Il 28 -If 0 -Ii 4 -Iv 1 -adian:s 2 (PING REPLY) 
r -t 0.009032227 -Hs 1 -Hd -2 -Ni 1 -Nx 100.00 -Ny 150.00 -Nz 0.00 -Ne -1.000000 -Nl MAC -Nw --- -Ma 0 -Md 1 -Ms 0 -Mt 0 
s -t 0.009122227 -Hs 1 -Hd -2 -Ni 1 -Nx 100.00 -Ny 150.00 -Nz 0.00 -Ne -1.000000 -Nl MAC -Nw --- -Ma 52e -Md 0 -Ms 1 -Mt 0 
r -t 0.009474406 -Hs 0 -Hd -2 -Ni 0 -Nx 80.00 -Ny 200.00 -Nz 0.00 -Ne -1.000000 -Nl MAC -Nw --- -Ma 52e -Md 0 -Ms 1 -Mt 0 
s -t 0.009484406 -Hs 0 -Hd -2 -Ni 0 -Nx 80.00 -Ny 200.00 -Nz 0.00 -Ne -1.000000 -Nl MAC -Nw --- -Ma 3f4 -Md 1 -Ms 0 -Mt 0 
r -t 0.009788586 -Hs 1 -Hd -2 -Ni 1 -Nx 100.00 -Ny 150.00 -Nz 0.00 -Ne -1.000000 -Nl MAC -Nw --- -Ma 3f4 -Md 1 -Ms 0 -Mt 0 
s -t 0.009798586 -Hs 1 -Hd -2 -Ni 1 -Nx 100.00 -Ny 150.00 -Nz 0.00 -Ne -1.000000 -Nl MAC -Nw --- -Ma 13a -Md 0 -Ms 1 -Mt 806 -P arp -Po REPLY -Pms 1 -Ps 1 -Pmd 0 -Pd 0 
r -t 0.010486765 -Hs 0 -Hd -2 -Ni 0 -Nx 80.00 -Ny 200.00 -Nz 0.00 -Ne -1.000000 -Nl MAC -Nw --- -Ma 13a -Md 0 -Ms 1 -Mt 806 -P arp -Po REPLY -Pms 1 -Ps 1 -Pmd 0 -Pd 0 
s -t 0.010496765 -Hs 0 -Hd -2 -Ni 0 -Nx 80.00 -Ny 200.00 -Nz 0.00 -Ne -1.000000 -Nl MAC -Nw --- -Ma 0 -Md 1 -Ms 0 -Mt 0 
r -t 0.010800945 -Hs 1 -Hd -2 -Ni 1 -Nx 100.00 -Ny 150.00 -Nz 0.00 -Ne -1.000000 -Nl MAC -Nw --- -Ma 0 -Md 1 -Ms 0 -Mt 0 
s -t 0.010990765 -Hs 0 -Hd -2 -Ni 0 -Nx 80.00 -Ny 200.00 -Nz 0.00 -Ne -1.000000 -Nl MAC -Nw --- -Ma 52e -Md 1 -Ms 0 -Mt 0 
r -t 0.011342945 -Hs 1 -Hd -2 -Ni 1 -Nx 100.00 -Ny 150.00 -Nz 0.00 -Ne -1.000000 -Nl MAC -Nw --- -Ma 52e -Md 1 -Ms 0 -Mt 0 
s -t 0.011352945 -Hs 1 -Hd -2 -Ni 1 -Nx 100.00 -Ny 150.00 -Nz 0.00 -Ne -1.000000 -Nl MAC -Nw --- -Ma 3f4 -Md 0 -Ms 0 -Mt 0 
r -t 0.011657124 -Hs 0 -Hd -2 -Ni 0 -Nx 80.00 -Ny 200.00 -Nz 0.00 -Ne -1.000000 -Nl MAC -Nw --- -Ma 3f4 -Md 0 -Ms 0 -Mt 0 
s -t 0.011667124 -Hs 0 -Hd -2 -Ni 0 -Nx 80.00 -Ny 200.00 -Nz 0.00 -Ne -1.000000 -Nl MAC -Nw --- -Ma 13a -Md 1 -Ms 0 -Mt 806 -P arp -Po REPLY -Pms 0 -Ps 0 -Pmd 1 -Pd 1 
r -t 0.012355304 -Hs 1 -Hd -2 -Ni 1 -Nx 100.00 -Ny 150.00 -Nz 0.00 -Ne -1.000000 -Nl MAC -Nw --- -Ma 13a -Md 1 -Ms 0 -Mt 806 -P arp -Po REPLY -Pms 0 -Ps 0 -Pmd 1 -Pd 1 
s -t 0.012365304 -Hs 1 -Hd -2 -Ni 1 -Nx 100.00 -Ny 150.00 -Nz 0.00 -Ne -1.000000 -Nl MAC -Nw --- -Ma 0 -Md 0 -Ms 0 -Mt 0 
r -t 0.012669483 -Hs 0 -Hd -2 -Ni 0 -Nx 80.00 -Ny 200.00 -Nz 0.00 -Ne -1.000000 -Nl MAC -Nw --- -Ma 0 -Md 0 -Ms 0 -Mt 0 
s -t 0.012890068 -Hs 2 -Hd -2 -Ni 2 -Nx 320.00 -Ny 50.00 -Nz 0.00 -Ne -1.000000 -Nl MAC -Nw --- -Ma 0 -Md ffffffff -Ms 2 -Mt 806 -P arp -Po REQUEST -Pms 2 -Ps 2 -Pmd 0 -Pd 1 
r -t 0.013578873 -Hs 1 -Hd -2 -Ni 1 -Nx 100.00 -Ny 150.00 -Nz 0.00 -Ne -1.000000 -Nl MAC -Nw --- -Ma 0 -Md ffffffff -Ms 2 -Mt 806 -P arp -Po REQUEST -Pms 2 -Ps 2 -Pmd 0 -Pd 1 
s -t 0.013888873 -Hs 1 -Hd -2 -Ni 1 -Nx 100.00 -Ny 150.00 -Nz 0.00 -Ne -1.000000 -Nl MAC -Nw --- -Ma 52e -Md 2 -Ms 1 -Mt 0 
r -t 0.014241679 -Hs 2 -Hd -2 -Ni 2 -Nx 320.00 -Ny 50.00 -Nz 0.00 -Ne -1.000000 -Nl MAC -Nw --- -Ma 52e -Md 2 -Ms 1 -Mt 0 
s -t 0.014251679 -Hs 2 -Hd -2 -Ni 2 -Nx 320.00 -Ny 50.00 -Nz 0.00 -Ne -1.000000 -Nl MAC -Nw --- -Ma 3f4 -Md 1 -Ms 0 -Mt 0 
r -t 0.014556484 -Hs 1 -Hd -2 -Ni 1 -Nx 100.00 -Ny 150.00 -Nz 0.00 -Ne -1.000000 -Nl MAC -Nw --- -Ma 3f4 -Md 1 -Ms 0 -Mt 0 
s -t 0.014566484 -Hs 1 -Hd 2 -Ni 1 -Nx 100.00 -Ny 150.00 -Nz 0.00 -Ne -1.000000 -Nl MAC -Nw --- -Ma 13a -Md 2 -Ms 1 -Mt 800 -Is 1.255 -Id 2.255 -It ADIAN -Il 86 -If 0 -Ii 7 -Iv 1 -adian:s 4 (PING REPLY) 
r -t 0.015255290 -Hs 2 -Hd 2 -Ni 2 -Nx 320.00 -Ny 50.00 -Nz 0.00 -Ne -1.000000 -Nl MAC -Nw --- -Ma 13a -Md 2 -Ms 1 -Mt 800 -Is 1.255 -Id 2.255 -It ADIAN -Il 28 -If 0 -Ii 7 -Iv 1 -adian:s 4 (PING REPLY) 
s -t 0.015265290 -Hs 2 -Hd -2 -Ni 2 -Nx 320.00 -Ny 50.00 -Nz 0.00 -Ne -1.000000 -Nl MAC -Nw --- -Ma 0 -Md 1 -Ms 0 -Mt 0 
r -t 0.015280290 -Hs 2 -Hd 2 -Ni 2 -Nx 320.00 -Ny 50.00 -Nz 0.00 -Ne -1.000000 -Nl RTR -Nw --- -Ma 13a -Md 2 -Ms 1 -Mt 800 -Is 1.255 -Id 2.255 -It ADIAN -Il 28 -If 0 -Ii 7 -Iv 1 -adian:s 4 (PING REPLY) 
r -t 0.015570095 -Hs 1 -Hd -2 -Ni 1 -Nx 100.00 -Ny 150.00 -Nz 0.00 -Ne -1.000000 -Nl MAC -Nw --- -Ma 0 -Md 1 -Ms 0 -Mt 0 
s -t 0.015719290 -Hs 2 -Hd -2 -Ni 2 -Nx 320.00 -Ny 50.00 -Nz 0.00 -Ne -1.000000 -Nl MAC -Nw --- -Ma 52e -Md 1 -Ms 2 -Mt 0 
r -t 0.016072095 -Hs 1 -Hd -2 -Ni 1 -Nx 100.00 -Ny 150.00 -Nz 0.00 -Ne -1.000000 -Nl MAC -Nw --- -Ma 52e -Md 1 -Ms 2 -Mt 0 
s -t 0.016082095 -Hs 1 -Hd -2 -Ni 1 -Nx 100.00 -Ny 150.00 -Nz 0.00 -Ne -1.000000 -Nl MAC -Nw --- -Ma 3f4 -Md 2 -Ms 0 -Mt 0 
r -t 0.016386901 -Hs 2 -Hd -2 -Ni 2 -Nx 320.00 -Ny 50.00 -Nz 0.00 -Ne -1.000000 -Nl MAC -Nw --- -Ma 3f4 -Md 2 -Ms 0 -Mt 0 
s -t 0.016396901 -Hs 2 -Hd 1 -Ni 2 -Nx 320.00 -Ny 50.00 -Nz 0.00 -Ne -1.000000 -Nl MAC -Nw --- -Ma 13a -Md 1 -Ms 2 -Mt 800 -Is 2.255 -Id 1.255 -It ADIAN -Il 86 -If 0 -Ii 6 -Iv 1 -adian:s 3 (PING REPLY) 
r -t 0.017085706 -Hs 1 -Hd 1 -Ni 1 -Nx 100.00 -Ny 150.00 -Nz 0.00 -Ne -1.000000 -Nl MAC -Nw --- -Ma 13a -Md 1 -Ms 2 -Mt 800 -Is 2.255 -Id 1.255 -It ADIAN -Il 28 -If 0 -Ii 6 -Iv 1 -adian:s 3 (PING REPLY) 
s -t 0.017095706 -Hs 1 -Hd -2 -Ni 1 -Nx 100.00 -Ny 150.00 -Nz 0.00 -Ne -1.000000 -Nl MAC -Nw --- -Ma 0 -Md 2 -Ms 0 -Mt 0 
r -t 0.017110706 -Hs 1 -Hd 1 -Ni 1 -Nx 100.00 -Ny 150.00 -Nz 0.00 -Ne -1.000000 -Nl RTR -Nw --- -Ma 13a -Md 1 -Ms 2 -Mt 800 -Is 2.255 -Id 1.255 -It ADIAN -Il 28 -If 0 -Ii 6 -Iv 1 -adian:s 3 (PING REPLY) 
r -t 0.017400512 -Hs 2 -Hd -2 -Ni 2 -Nx 320.00 -Ny 50.00 -Nz 0.00 -Ne -1.000000 -Nl MAC -Nw --- -Ma 0 -Md 2 -Ms 0 -Mt 0 
s -t 0.017589706 -Hs 1 -Hd -2 -Ni 1 -Nx 100.00 -Ny 150.00 -Nz 0.00 -Ne -1.000000 -Nl MAC -Nw --- -Ma 52e -Md 2 -Ms 1 -Mt 0 
r -t 0.017942512 -Hs 2 -Hd -2 -Ni 2 -Nx 320.00 -Ny 50.00 -Nz 0.00 -Ne -1.000000 -Nl MAC -Nw --- -Ma 52e -Md 2 -Ms 1 -Mt 0 
s -t 0.017952512 -Hs 2 -Hd -2 -Ni 2 -Nx 320.00 -Ny 50.00 -Nz 0.00 -Ne -1.000000 -Nl MAC -Nw --- -Ma 3f4 -Md 1 -Ms 0 -Mt 0 
r -t 0.018257317 -Hs 1 -Hd -2 -Ni 1 -Nx 100.00 -Ny 150.00 -Nz 0.00 -Ne -1.000000 -Nl MAC -Nw --- -Ma 3f4 -Md 1 -Ms 0 -Mt 0 
s -t 0.018267317 -Hs 1 -Hd -2 -Ni 1 -Nx 100.00 -Ny 150.00 -Nz 0.00 -Ne -1.000000 -Nl MAC -Nw --- -Ma 13a -Md 2 -Ms 1 -Mt 806 -P arp -Po REPLY -Pms 1 -Ps 1 -Pmd 2 -Pd 2 
r -t 0.018956123 -Hs 2 -Hd -2 -Ni 2 -Nx 320.00 -Ny 50.00 -Nz 0.00 -Ne -1.000000 -Nl MAC -Nw --- -Ma 13a -Md 2 -Ms 1 -Mt 806 -P arp -Po REPLY -Pms 1 -Ps 1 -Pmd 2 -Pd 2 
s -t 0.018966123 -Hs 2 -Hd -2 -Ni 2 -Nx 320.00 -Ny 50.00 -Nz 0.00 -Ne -1.000000 -Nl MAC -Nw --- -Ma 0 -Md 1 -Ms 0 -Mt 0 
r -t 0.019270928 -Hs 1 -Hd -2 -Ni 1 -Nx 100.00 -Ny 150.00 -Nz 0.00 -Ne -1.000000 -Nl MAC -Nw --- -Ma 0 -Md 1 -Ms 0 -Mt 0 
s -t 0.019360123 -Hs 2 -Hd -2 -Ni 2 -Nx 320.00 -Ny 50.00 -Nz 0.00 -Ne -1.000000 -Nl MAC -Nw --- -Ma 52e -Md 1 -Ms 2 -Mt 0 
r -t 0.019712928 -Hs 1 -Hd -2 -Ni 1 -Nx 100.00 -Ny 150.00 -Nz 0.00 -Ne -1.000000 -Nl MAC -Nw --- -Ma 52e -Md 1 -Ms 2 -Mt 0 
s -t 0.019722928 -Hs 1 -Hd -2 -Ni 1 -Nx 100.00 -Ny 150.00 -Nz 0.00 -Ne -1.000000 -Nl MAC -Nw --- -Ma 3f4 -Md 2 -Ms 0 -Mt 0 
r -t 0.020027734 -Hs 2 -Hd -2 -Ni 2 -Nx 320.00 -Ny 50.00 -Nz 0.00 -Ne -1.000000 -Nl MAC -Nw --- -Ma 3f4 -Md 2 -Ms 0 -Mt 0 
s -t 0.020037734 -Hs 2 -Hd -2 -Ni 2 -Nx 320.00 -Ny 50.00 -Nz 0.00 -Ne -1.000000 -Nl MAC -Nw --- -Ma 13a -Md 1 -Ms 2 -Mt 806 -P arp -Po REPLY -Pms 2 -Ps 2 -Pmd 1 -Pd 1 
r -t 0.020726540 -Hs 1 -Hd -2 -Ni 1 -Nx 100.00 -Ny 150.00 -Nz 0.00 -Ne -1.000000 -Nl MAC -Nw --- -Ma 13a -Md 1 -Ms 2 -Mt 806 -P arp -Po REPLY -Pms 2 -Ps 2 -Pmd 1 -Pd 1 
s -t 0.020736540 -Hs 1 -Hd -2 -Ni 1 -Nx 100.00 -Ny 150.00 -Nz 0.00 -Ne -1.000000 -Nl MAC -Nw --- -Ma 0 -Md 2 -Ms 0 -Mt 0 
r -t 0.021041345 -Hs 2 -Hd -2 -Ni 2 -Nx 320.00 -Ny 50.00 -Nz 0.00 -Ne -1.000000 -Nl MAC -Nw --- -Ma 0 -Md 2 -Ms 0 -Mt 0 
M 1.00000 1 (100.00, 150.00, 0.00), (50.00, 90.00), 10.00
s -t 2.000000000 -Hs 0 -Hd -1 -Ni 0 -Nx 80.00 -Ny 200.00 -Nz 0.00 -Ne -1.000000 -Nl RTR -Nw --- -Ma 0 -Md 0 -Ms 0 -Mt 0 -Is 0.255 -Id -1.255 -It ADIAN -Il 28 -If 0 -Ii 8 -Iv 1 -adian:s 5 (PING) 
s -t 2.000000000 -Hs 1 -Hd -1 -Ni 1 -Nx 93.60 -Ny 142.32 -Nz 0.00 -Ne -1.000000 -Nl RTR -Nw --- -Ma 0 -Md 0 -Ms 0 -Mt 0 -Is 1.255 -Id -1.255 -It ADIAN -Il 28 -If 0 -Ii 9 -Iv 1 -adian:s 6 (PING) 
s -t 2.000000000 -Hs 2 -Hd -1 -Ni 2 -Nx 320.00 -Ny 50.00 -Nz 0.00 -Ne -1.000000 -Nl RTR -Nw --- -Ma 0 -Md 0 -Ms 0 -Mt 0 -Is 2.255 -Id -1.255 -It ADIAN -Il 28 -If 0 -Ii 10 -Iv 1 -adian:s 7 (PING) 
s -t 2.000275000 -Hs 1 -Hd -1 -Ni 1 -Nx 93.60 -Ny 142.32 -Nz 0.00 -Ne -1.000000 -Nl MAC -Nw --- -Ma 0 -Md ffffffff -Ms 1 -Mt 800 -Is 1.255 -Id -1.255 -It ADIAN -Il 86 -If 0 -Ii 9 -Iv 1 -adian:s 6 (PING) 
r -t 2.000963198 -Hs 0 -Hd -1 -Ni 0 -Nx 80.00 -Ny 200.00 -Nz 0.00 -Ne -1.000000 -Nl MAC -Nw --- -Ma 0 -Md ffffffff -Ms 1 -Mt 800 -Is 1.255 -Id -1.255 -It ADIAN -Il 28 -If 0 -Ii 9 -Iv 1 -adian:s 6 (PING) 
r -t 2.000963815 -Hs 2 -Hd -1 -Ni 2 -Nx 320.00 -Ny 50.00 -Nz 0.00 -Ne -1.000000 -Nl MAC -Nw --- -Ma 0 -Md ffffffff -Ms 1 -Mt 800 -Is 1.255 -Id -1.255 -It ADIAN -Il 28 -If 0 -Ii 9 -Iv 1 -adian:s 6 (PING) 
r -t 2.000988198 -Hs 0 -Hd -1 -Ni 0 -Nx 80.00 -Ny 200.00 -Nz 0.00 -Ne -1.000000 -Nl RTR -Nw --- -Ma 0 -Md ffffffff -Ms 1 -Mt 800 -Is 1.255 -Id -1.255 -It ADIAN -Il 28 -If 0 -Ii 9 -Iv 1 -adian:s 6 (PING) 
s -t 2.000988198 -Hs 0 -Hd 1 -Ni 0 -Nx 80.00 -Ny 200.00 -Nz 0.00 -Ne -1.000000 -Nl RTR -Nw --- -Ma 0 -Md 0 -Ms 0 -Mt 0 -Is 0.255 -Id 1.255 -It ADIAN -Il 28 -If 0 -Ii 11 -Iv 1 -adian:s 6 (PING REPLY) 
r -t 2.000988815 -Hs 2 -Hd -1 -Ni 2 -Nx 320.00 -Ny 50.00 -Nz 0.00 -Ne -1.000000 -Nl RTR -Nw --- -Ma 0 -Md ffffffff -Ms 1 -Mt 800 -Is 1.255 -Id -1.255 -It ADIAN -Il 28 -If 0 -Ii 9 -Iv 1 -adian:s 6 (PING) 
s -t 2.000988815 -Hs 2 -Hd 1 -Ni 2 -Nx 320.00 -Ny 50.00 -Nz 0.00 -Ne -1.000000 -Nl RTR -Nw --- -Ma 0 -Md 0 -Ms 0 -Mt 0 -Is 2.255 -Id 1.255 -It ADIAN -Il 28 -If 0 -Ii 12 -Iv 1 -adian:s 6 (PING REPLY) 
s -t 2.001033815 -Hs 2 -Hd -1 -Ni 2 -Nx 320.00 -Ny 50.00 -Nz 0.00 -Ne -1.000000 -Nl MAC -Nw --- -Ma 0 -Md ffffffff -Ms 2 -Mt 800 -Is 2.255 -Id -1.255 -It ADIAN -Il 86 -If 0 -Ii 10 -Iv 1 -adian:s 7 (PING) 
r -t 2.001722630 -Hs 1 -Hd -1 -Ni 1 -Nx 93.59 -Ny 142.30 -Nz 0.00 -Ne -1.000000 -Nl MAC -Nw --- -Ma 0 -Md ffffffff -Ms 2 -Mt 800 -Is 2.255 -Id -1.255 -It ADIAN -Il 28 -If 0 -Ii 10 -Iv 1 -adian:s 7 (PING) 
r -t 2.001747630 -Hs 1 -Hd -1 -Ni 1 -Nx 93.59 -Ny 142.30 -Nz 0.00 -Ne -1.000000 -Nl RTR -Nw --- -Ma 0 -Md ffffffff -Ms 2 -Mt 800 -Is 2.255 -Id -1.255 -It ADIAN -Il 28 -If 0 -Ii 10 -Iv 1 -adian:s 7 (PING) 
s -t 2.001747630 -Hs 1 -Hd 2 -Ni 1 -Nx 93.59 -Ny 142.30 -Nz 0.00 -Ne -1.000000 -Nl RTR -Nw --- -Ma 0 -Md 0 -Ms 0 -Mt 0 -Is 1.255 -Id 2.255 -It ADIAN -Il 28 -If 0 -Ii 13 -Iv 1 -adian:s 7 (PING REPLY) 
s -t 2.002011815 -Hs 2 -Hd -2 -Ni 2 -Nx 320.00 -Ny 50.00 -Nz 0.00 -Ne -1.000000 -Nl MAC -Nw --- -Ma 52e -Md 1 -Ms 2 -Mt 0 
r -t 2.002364630 -Hs 1 -Hd -2 -Ni 1 -Nx 93.58 -Ny 142.30 -Nz 0.00 -Ne -1.000000 -Nl MAC -Nw --- -Ma 52e -Md 1 -Ms 2 -Mt 0 
s -t 2.002374630 -Hs 1 -Hd -2 -Ni 1 -Nx 93.58 -Ny 142.30 -Nz 0.00 -Ne -1.000000 -Nl MAC -Nw --- -Ma 3f4 -Md 2 -Ms 0 -Mt 0 
r -t 2.002679445 -Hs 2 -Hd -2 -Ni 2 -Nx 320.00 -Ny 50.00 -Nz 0.00 -Ne -1.000000 -Nl MAC -Nw --- -Ma 3f4 -Md 2 -Ms 0 -Mt 0 
s -t 2.002689445 -Hs 2 -Hd 1 -Ni 2 -Nx 320.00 -Ny 50.00 -Nz 0.00 -Ne -1.000000 -Nl MAC -Nw --- -Ma 13a -Md 1 -Ms 2 -Mt 800 -Is 2.255 -Id 1.255 -It ADIAN -Il 86 -If 0 -Ii 12 -Iv 1 -adian:s 6 (PING REPLY) 
r -t 2.003378260 -Hs 1 -Hd 1 -Ni 1 -Nx 93.58 -Ny 142.29 -Nz 0.00 -Ne -1.000000 -Nl MAC -Nw --- -Ma 13a -Md 1 -Ms 2 -Mt 800 -Is 2.255 -Id 1.255 -It ADIAN -Il 28 -If 0 -Ii 12 -Iv 1 -adian:s 6 (PING REPLY) 
s -t 2.003388260 -Hs 1 -Hd -2 -Ni 1 -Nx 93.58 -Ny 142.29 -Nz 0.00 -Ne -1.000000 -Nl MAC -Nw --- -Ma 0 -Md 2 -Ms 0 -Mt 0 
r -t 2.003403260 -Hs 1 -Hd 1 -Ni 1 -Nx 93.58 -Ny 142.29 -Nz 0.00 -Ne -1.000000 -Nl RTR -Nw --- -Ma 13a -Md 1 -Ms 2 -Mt 800 -Is 2.255 -Id 1.255 -It ADIAN -Il 28 -If 0 -Ii 12 -Iv 1 -adian:s 6 (PING REPLY) 
r -t 2.003693075 -Hs 2 -Hd -2 -Ni 2 -Nx 320.00 -Ny 50.00 -Nz 0.00 -Ne -1.000000 -Nl MAC -Nw --- -Ma 0 -Md 2 -Ms 0 -Mt 0 
s -t 2.003892388 -Hs 0 -Hd -1 -Ni 0 -Nx 80.00 -Ny 200.00 -Nz 0.00 -Ne -1.000000 -Nl MAC -Nw --- -Ma 0 -Md ffffffff -Ms 0 -Mt 800 -Is 0.255 -Id -1.255 -It ADIAN -Il 86 -If 0 -Ii 8 -Iv 1 -adian:s 5 (PING) 
r -t 2.004580586 -Hs 1 -Hd -1 -Ni 1 -Nx 93.57 -Ny 142.28 -Nz 0.00 -Ne -1.000000 -Nl MAC -Nw --- -Ma 0 -Md ffffffff -Ms 0 -Mt 800 -Is 0.255 -Id -1.255 -It ADIAN -Il 28 -If 0 -Ii 8 -Iv 1 -adian:s 5 (PING) 
r -t 2.004605586 -Hs 1 -Hd -1 -Ni 1 -Nx 93.57 -Ny 142.28 -Nz 0.00 -Ne -1.000000 -Nl RTR -Nw --- -Ma 0 -Md ffffffff -Ms 0 -Mt 800 -Is 0.255 -Id -1.255 -It ADIAN -Il 28 -If 0 -Ii 8 -Iv 1 -adian:s 5 (PING) 
s -t 2.004605586 -Hs 1 -Hd 0 -Ni 1 -Nx 93.57 -Ny 142.28 -Nz 0.00 -Ne -1.000000 -Nl RTR -Nw --- -Ma 0 -Md 0 -Ms 0 -Mt 0 -Is 1.255 -Id 0.255 -It ADIAN -Il 28 -If 0 -Ii 14 -Iv 1 -adian:s 5 (PING REPLY) 
s -t 2.004750586 -Hs 1 -Hd -2 -Ni 1 -Nx 93.57 -Ny 142.28 -Nz 0.00 -Ne -1.000000 -Nl MAC -Nw --- -Ma 52e -Md 2 -Ms 1 -Mt 0 
r -t 2.005103401 -Hs 2 -Hd -2 -Ni 2 -Nx 320.00 -Ny 50.00 -Nz 0.00 -Ne -1.000000 -Nl MAC -Nw --- -Ma 52e -Md 2 -Ms 1 -Mt 0 
s -t 2.005113401 -Hs 2 -Hd -2 -Ni 2 -Nx 320.00 -Ny 50.00 -Nz 0.00 -Ne -1.000000 -Nl MAC -Nw --- -Ma 3f4 -Md 1 -Ms 0 -Mt 0 
r -t 2.005418216 -Hs 1 -Hd -2 -Ni 1 -Nx 93.56 -Ny 142.28 -Nz 0.00 -Ne -1.000000 -Nl MAC -Nw --- -Ma 3f4 -Md 1 -Ms 0 -Mt 0 
s -t 2.005428216 -Hs 1 -Hd 2 -Ni 1 -Nx 93.56 -Ny 142.28 -Nz 0.00 -Ne -1.000000 -Nl MAC -Nw --- -Ma 13a -Md 2 -Ms 1 -Mt 800 -Is 1.255 -Id 2.255 -It ADIAN -Il 86 -If 0 -Ii 13 -Iv 1 -adian:s 7 (PING REPLY) 
r -t 2.006117031 -Hs 2 -Hd 2 -Ni 2 -Nx 320.00 -Ny 50.00 -Nz 0.00 -Ne -1.000000 -Nl MAC -Nw --- -Ma 13a -Md 2 -Ms 1 -Mt 800 -Is 1.255 -Id 2.255 -It ADIAN -Il 28 -If 0 -Ii 13 -Iv 1 -adian:s 7 (PING REPLY) 
s -t 2.006127031 -Hs 2 -Hd -2 -Ni 2 -Nx 320.00 -Ny 50.00 -Nz 0.00 -Ne -1.000000 -Nl MAC -Nw --- -Ma 0 -Md 1 -Ms 0 -Mt 0 
r -t 2.006142031 -Hs 2 -Hd 2 -Ni 2 -Nx 320.00 -Ny 50.00 -Nz 0.00 -Ne -1.000000 -Nl RTR -Nw --- -Ma 13a -Md 2 -Ms 1 -Mt 800 -Is 1.255 -Id 2.255 -It ADIAN -Il 28 -If 0 -Ii 13 -Iv 1 -adian:s 7 (PING REPLY) 
r -t 2.006431846 -Hs 1 -Hd -2 -Ni 1 -Nx 93.56 -Ny 142.27 -Nz 0.00 -Ne -1.000000 -Nl MAC -Nw --- -Ma 0 -Md 1 -Ms 0 -Mt 0 
s -t 2.006881846 -Hs 1 -Hd -2 -Ni 1 -Nx 93.55 -Ny 142.26 -Nz 0.00 -Ne -1.000000 -Nl MAC -Nw --- -Ma 52e -Md 0 -Ms 1 -Mt 0 
r -t 2.007234044 -Hs 0 -Hd -2 -Ni 0 -Nx 80.00 -Ny 200.00 -Nz 0.00 -Ne -1.000000 -Nl MAC -Nw --- -Ma 52e -Md 0 -Ms 1 -Mt 0 
s -t 2.007244044 -Hs 0 -Hd -2 -Ni 0 -Nx 80.00 -Ny 200.00 -Nz 0.00 -Ne -1.000000 -Nl MAC -Nw --- -Ma 3f4 -Md 1 -Ms 0 -Mt 0 
r -t 2.007548242 -Hs 1 -Hd -2 -Ni 1 -Nx 93.55 -Ny 142.26 -Nz 0.00 -Ne -1.000000 -Nl MAC -Nw --- -Ma 3f4 -Md 1 -Ms 0 -Mt 0 
s -t 2.007558242 -Hs 1 -Hd 0 -Ni 1 -Nx 93.55 -Ny 142.26 -Nz 0.00 -Ne -1.000000 -Nl MAC -Nw --- -Ma 13a -Md 0 -Ms 1 -Mt 800 -Is 1.255 -Id 0.255 -It ADIAN -Il 86 -If 0 -Ii 14 -Iv 1 -adian:s 5 (PING REPLY) 
r -t 2.008246439 -Hs 0 -Hd 0 -Ni 0 -Nx 80.00 -Ny 200.00 -Nz 0.00 -Ne -1.000000 -Nl MAC -Nw --- -Ma 13a -Md 0 -Ms 1 -Mt 800 -Is 1.255 -Id 0.255 -It ADIAN -Il 28 -If 0 -Ii 14 -Iv 1 -adian:s 5 (PING REPLY) 
s -t 2.008256439 -Hs 0 -Hd -2 -Ni 0 -Nx 80.00 -Ny 200.00 -Nz 0.00 -Ne -1.000000 -Nl MAC -Nw --- -Ma 0 -Md 1 -Ms 0 -Mt 0 
r -t 2.008271439 -Hs 0 -Hd 0 -Ni 0 -Nx 80.00 -Ny 200.00 -Nz 0.00 -Ne -1.000000 -Nl RTR -Nw --- -Ma 13a -Md 0 -Ms 1 -Mt 800 -Is 1.255 -Id 0.255 -It ADIAN -Il 28 -If 0 -Ii 14 -Iv 1 -adian:s 5 (PING REPLY) 
r -t 2.008560637 -Hs 1 -Hd -2 -Ni 1 -Nx 93.54 -Ny 142.25 -Nz 0.00 -Ne -1.000000 -Nl MAC -Nw --- -Ma 0 -Md 1 -Ms 0 -Mt 0 
s -t 2.009050439 -Hs 0 -Hd -2 -Ni 0 -Nx 80.00 -Ny 200.00 -Nz 0.00 -Ne -1.000000 -Nl MAC -Nw --- -Ma 52e -Md 1 -Ms 0 -Mt 0 
r -t 2.009402637 -Hs 1 -Hd -2 -Ni 1 -Nx 93.54 -Ny 142.25 -Nz 0.00 -Ne -1.000000 -Nl MAC -Nw --- -Ma 52e -Md 1 -Ms 0 -Mt 0 
s -t 2.009412637 -Hs 1 -Hd -2 -Ni 1 -Nx 93.54 -Ny 142.25 -Nz 0.00 -Ne -1.000000 -Nl MAC -Nw --- -Ma 3f4 -Md 0 -Ms 0 -Mt 0 
r -t 2.009716835 -Hs 0 -Hd -2 -Ni 0 -Nx 80.00 -Ny 200.00 -Nz 0.00 -Ne -1.000000 -Nl MAC -Nw --- -Ma 3f4 -Md 0 -Ms 0 -Mt 0 
s -t 2.009726835 -Hs 0 -Hd 1 -Ni 0 -Nx 80.00 -Ny 200.00 -Nz 0.00 -Ne -1.000000 -Nl MAC -Nw --- -Ma 13a -Md 1 -Ms 0 -Mt 800 -Is 0.255 -Id 1.255 -It ADIAN -Il 86 -If 0 -Ii 11 -Iv 1 -adian:s 6 (PING REPLY) 
r -t 2.010415033 -Hs 1 -Hd 1 -Ni 1 -Nx 93.53 -Ny 142.24 -Nz 0.00 -Ne -1.000000 -Nl MAC -Nw --- -Ma 13a -Md 1 -Ms 0 -Mt 800 -Is 0.255 -Id 1.255 -It ADIAN -Il 28 -If 0 -Ii 11 -Iv 1 -adian:s 6 (PING REPLY) 
s -t 2.010425033 -Hs 1 -Hd -2 -Ni 1 -Nx 93.53 -Ny 142.24 -Nz 0.00 -Ne -1.000000 -Nl MAC -Nw --- -Ma 0 -Md 0 -Ms 0 -Mt 0 
r -t 2.010440033 -Hs 1 -Hd 1 -Ni 1 -Nx 93.53 -Ny 142.24 -Nz 0.00 -Ne -1.000000 -Nl RTR -Nw --- -Ma 13a -Md 1 -Ms 0 -Mt 800 -Is 0.255 -Id 1.255 -It ADIAN -Il 28 -If 0 -Ii 11 -Iv 1 -adian:s 6 (PING REPLY) 
r -t 2.010729230 -Hs 0 -Hd -2 -Ni 0 -Nx 80.00 -Ny 200.00 -Nz 0.00 -Ne -1.000000 -Nl MAC -Nw --- -Ma 0 -Md 0 -Ms 0 -Mt 0 
s -t 3.000000000 -Hs 0 -Hd -2 -Ni 0 -Nx 80.00 -Ny 200.00 -Nz 0.00 -Ne -1.000000 -Nl AGT -Nw --- -Ma 0 -Md 0 -Ms 0 -Mt 0 -Is 0.0 -Id 2.0 -It tcp -Il 40 -If 0 -Ii 15 -Iv 32 -Pn tcp -Ps 0 -Pa 0 -Pf 0 -Po 0 
r -t 3.000000000 -Hs 0 -Hd -2 -Ni 0 -Nx 80.00 -Ny 200.00 -Nz 0.00 -Ne -1.000000 -Nl RTR -Nw --- -Ma 0 -Md 0 -Ms 0 -Mt 0 -Is 0.0 -Id 2.0 -It tcp -Il 40 -If 0 -Ii 15 -Iv 32 -Pn tcp -Ps 0 -Pa 0 -Pf 0 -Po 0 
d -t 3.000000000 -Hs 0 -Hd -2 -Ni 0 -Nx 80.00 -Ny 200.00 -Nz 0.00 -Ne -1.000000 -Nl RTR -Nw NRTE -Ma 0 -Md 0 -Ms 0 -Mt 0 -Is 0.0 -Id 2.0 -It tcp -Il 40 -If 0 -Ii 15 -Iv 31 -Pn tcp -Ps 0 -Pa 0 -Pf 0 -Po 0 
s -t 3.000000000 -Hs 0 -Hd -1 -Ni 0 -Nx 80.00 -Ny 200.00 -Nz 0.00 -Ne -1.000000 -Nl RTR -Nw --- -Ma 0 -Md 0 -Ms 0 -Mt 0 -Is 0.255 -Id 1.255 -It ADIAN -Il 36 -If 0 -Ii 16 -Iv 32 -P adian -Po 0 -Ps 8 -Pd 2 
s -t 3.000000000 -Hs 0 -Hd -1 -Ni 0 -Nx 80.00 -Ny 200.00 -Nz 0.00 -Ne -1.000000 -Nl RTR -Nw --- -Ma 0 -Md 0 -Ms 0 -Mt 0 -Is 0.255 -Id 1.255 -It ADIAN -Il 36 -If 0 -Ii 17 -Iv 32 -P adian -Po 0 -Ps 8 -Pd 2 
s -t 3.000115000 -Hs 0 -Hd -1 -Ni 0 -Nx 80.00 -Ny 200.00 -Nz 0.00 -Ne -1.000000 -Nl MAC -Nw --- -Ma 0 -Md ffffffff -Ms 0 -Mt 800 -Is 0.255 -Id 1.255 -It ADIAN -Il 94 -If 0 -Ii 16 -Iv 32 -P adian -Po 0 -Ps 8 -Pd 2 
r -t 3.000867219 -Hs 1 -Hd -1 -Ni 1 -Nx 87.19 -Ny 134.63 -Nz 0.00 -Ne -1.000000 -Nl MAC -Nw --- -Ma 0 -Md ffffffff -Ms 0 -Mt 800 -Is 0.255 -Id 1.255 -It ADIAN -Il 36 -If 0 -Ii 16 -Iv 32 -P adian -Po 0 -Ps 8 -Pd 2 
r -t 3.000892219 -Hs 1 -Hd -1 -Ni 1 -Nx 87.19 -Ny 134.63 -Nz 0.00 -Ne -1.000000 -Nl RTR -Nw --- -Ma 0 -Md ffffffff -Ms 0 -Mt 800 -Is 0.255 -Id 1.255 -It ADIAN -Il 36 -If 0 -Ii 16 -Iv 32 -P adian -Po 0 -Ps 8 -Pd 2 
s -t 3.000892219 -Hs 1 -Hd -1 -Ni 1 -Nx 87.19 -Ny 134.63 -Nz 0.00 -Ne -1.000000 -Nl RTR -Nw --- -Ma 0 -Md 0 -Ms 0 -Mt 0 -Is 1.255 -Id 0.255 -It ADIAN -Il 36 -If 0 -Ii 18 -Iv 32 -P adian -Po 0 -Ps 8 -Pd 2 
s -t 3.001217000 -Hs 0 -Hd -1 -Ni 0 -Nx 80.00 -Ny 200.00 -Nz 0.00 -Ne -1.000000 -Nl MAC -Nw --- -Ma 0 -Md ffffffff -Ms 0 -Mt 800 -Is 0.255 -Id 1.255 -It ADIAN -Il 94 -If 0 -Ii 17 -Iv 32 -P adian -Po 0 -Ps 8 -Pd 2 
r -t 3.001969219 -Hs 1 -Hd -1 -Ni 1 -Nx 87.18 -Ny 134.62 -Nz 0.00 -Ne -1.000000 -Nl MAC -Nw --- -Ma 0 -Md ffffffff -Ms 0 -Mt 800 -Is 0.255 -Id 1.255 -It ADIAN -Il 36 -If 0 -Ii 17 -Iv 32 -P adian -Po 0 -Ps 8 -Pd 2 
r -t 3.001994219 -Hs 1 -Hd -1 -Ni 1 -Nx 87.18 -Ny 134.62 -Nz 0.00 -Ne -1.000000 -Nl RTR -Nw --- -Ma 0 -Md ffffffff -Ms 0 -Mt 800 -Is 0.255 -Id 1.255 -It ADIAN -Il 36 -If 0 -Ii 17 -Iv 32 -P adian -Po 0 -Ps 8 -Pd 2 
s -t 3.001994219 -Hs 1 -Hd -1 -Ni 1 -Nx 87.18 -Ny 134.62 -Nz 0.00 -Ne -1.000000 -Nl RTR -Nw --- -Ma 0 -Md 0 -Ms 0 -Mt 0 -Is 1.255 -Id 0.255 -It ADIAN -Il 36 -If 0 -Ii 19 -Iv 32 -P adian -Po 0 -Ps 8 -Pd 2 
s -t 3.002139219 -Hs 1 -Hd -1 -Ni 1 -Nx 87.18 -Ny 134.62 -Nz 0.00 -Ne -1.000000 -Nl MAC -Nw --- -Ma 0 -Md ffffffff -Ms 1 -Mt 800 -Is 1.255 -Id 0.255 -It ADIAN -Il 94 -If 0 -Ii 18 -Iv 32 -P adian -Po 0 -Ps 8 -Pd 2 
r -t 3.002891438 -Hs 0 -Hd -1 -Ni 0 -Nx 80.00 -Ny 200.00 -Nz 0.00 -Ne -1.000000 -Nl MAC -Nw --- -Ma 0 -Md ffffffff -Ms 1 -Mt 800 -Is 1.255 -Id 0.255 -It ADIAN -Il 36 -If 0 -Ii 18 -Iv 32 -P adian -Po 0 -Ps 8 -Pd 2 
r -t 3.002892045 -Hs 2 -Hd -1 -Ni 2 -Nx 320.00 -Ny 50.00 -Nz 0.00 -Ne -1.000000 -Nl MAC -Nw --- -Ma 0 -Md ffffffff -Ms 1 -Mt 800 -Is 1.255 -Id 0.255 -It ADIAN -Il 36 -If 0 -Ii 18 -Iv 32 -P adian -Po 0 -Ps 8 -Pd 2 
r -t 3.002916438 -Hs 0 -Hd -1 -Ni 0 -Nx 80.00 -Ny 200.00 -Nz 0.00 -Ne -1.000000 -Nl RTR -Nw --- -Ma 0 -Md ffffffff -Ms 1 -Mt 800 -Is 1.255 -Id 0.255 -It ADIAN -Il 36 -If 0 -Ii 18 -Iv 32 -P adian -Po 0 -Ps 8 -Pd 2 
r -t 3.002917045 -Hs 2 -Hd -1 -Ni 2 -Nx 320.00 -Ny 50.00 -Nz 0.00 -Ne -1.000000 -Nl RTR -Nw --- -Ma 0 -Md ffffffff -Ms 1 -Mt 800 -Is 1.255 -Id 0.255 -It ADIAN -Il 36 -If 0 -Ii 18 -Iv 32 -P adian -Po 0 -Ps 8 -Pd 2 
s -t 3.003021219 -Hs 1 -Hd -1 -Ni 1 -Nx 87.18 -Ny 134.61 -Nz 0.00 -Ne -1.000000 -Nl MAC -Nw --- -Ma 0 -Md ffffffff -Ms 1 -Mt 800 -Is 1.255 -Id 0.255 -It ADIAN -Il 94 -If 0 -Ii 19 -Iv 32 -P adian -Po 0 -Ps 8 -Pd 2 
r -t 3.003773438 -Hs 0 -Hd -1 -Ni 0 -Nx 80.00 -Ny 200.00 -Nz 0.00 -Ne -1.000000 -Nl MAC -Nw --- -Ma 0 -Md ffffffff -Ms 1 -Mt 800 -Is 1.255 -Id 0.255 -It ADIAN -Il 36 -If 0 -Ii 19 -Iv 32 -P adian -Po 0 -Ps 8 -Pd 2 
r -t 3.003774045 -Hs 2 -Hd -1 -Ni 2 -Nx 320.00 -Ny 50.00 -Nz 0.00 -Ne -1.000000 -Nl MAC -Nw --- -Ma 0 -Md ffffffff -Ms 1 -Mt 800 -Is 1.255 -Id 0.255 -It ADIAN -Il 36 -If 0 -Ii 19 -Iv 32 -P adian -Po 0 -Ps 8 -Pd 2 
r -t 3.003798438 -Hs 0 -Hd -1 -Ni 0 -Nx 80.00 -Ny 200.00 -Nz 0.00 -Ne -1.000000 -Nl RTR -Nw --- -Ma 0 -Md ffffffff -Ms 1 -Mt 800 -Is 1.255 -Id 0.255 -It ADIAN -Il 36 -If 0 -Ii 19 -Iv 32 -P adian -Po 0 -Ps 8 -Pd 2 
r -t 3.003799045 -Hs 2 -Hd -1 -Ni 2 -Nx 320.00 -Ny 50.00 -Nz 0.00 -Ne -1.000000 -Nl RTR -Nw --- -Ma 0 -Md ffffffff -Ms 1 -Mt 800 -Is 1.255 -Id 0.255 -It ADIAN -Il 36 -If 0 -Ii 19 -Iv 32 -P adian -Po 0 -Ps 8 -Pd 2 
M 4.00000 1 (80.79, 126.95, 0.00), (50.00, 10.00), 10.00
s -t 4.000000000 -Hs 0 -Hd -1 -Ni 0 -Nx 80.00 -Ny 200.00 -Nz 0.00 -Ne -1.000000 -Nl RTR -Nw --- -Ma 0 -Md 0 -Ms 0 -Mt 0 -Is 0.255 -Id -1.255 -It ADIAN -Il 28 -If 0 -Ii 20 -Iv 1 -adian:s 9 (PING) 