n -t * -s 0  -x 80 -y 200 -Z 0 -z 10  -v circle -c black
n -t * -s 1  -x 100 -y 150 -Z 0 -z 10  -v circle -c black
n -t * -s 2  -x 320 -y 50 -Z 0 -z 10  -v circle -c black
V -t * -v 1.0a5 -a 0
W -t * -x 300 -y 300
A -t * -n 1 -p 0 -o 0x7fffffff -c 30 -a 1
A -t * -h 1 -m 1073741823 -s 0
n -t 0 -s 0 -S DLABEL -l "ftp-source" -L ""
m -t 0 -s 0 -n mark0 -c red -h circle
n -t 0 -s 2 -S DLABEL -l "ftp-sink" -L ""
m -t 0 -s 2 -n mark1 -c blue -h circle
n -t 0 -s 1 -S DLABEL -l "intermediate" -L ""
m -t 0 -s 1 -n mark2 -c green -h circle
+ -t 0.000000000 -s 0 -d -1 -p tcp -e 40 -c 2 -a 0 -i 0 -k AGT 
- -t 0.000000000 -s 0 -d -1 -p tcp -e 40 -c 2 -a 0 -i 0 -k AGT
h -t 0.000000000 -s 0 -d -1 -p tcp -e 40 -c 2 -a 0 -i 0 -k AGT
d -t 0.000000000 -s 0 -d -1 -p tcp -e 40 -c 2 -a 0 -i 0 -k RTR
+ -t 0.000000000 -s 0 -d -1 -p ADIAN -e 28 -c 2 -a 0 -i 1 -k RTR 
- -t 0.000000000 -s 0 -d -1 -p ADIAN -e 28 -c 2 -a 0 -i 1 -k RTR
h -t 0.000000000 -s 0 -d -1 -p ADIAN -e 28 -c 2 -a 0 -i 1 -k RTR
+ -t 0.000000000 -s 1 -d -1 -p ADIAN -e 28 -c 2 -a 0 -i 2 -k RTR 
- -t 0.000000000 -s 1 -d -1 -p ADIAN -e 28 -c 2 -a 0 -i 2 -k RTR
h -t 0.000000000 -s 1 -d -1 -p ADIAN -e 28 -c 2 -a 0 -i 2 -k RTR
+ -t 0.000000000 -s 2 -d -1 -p ADIAN -e 28 -c 2 -a 0 -i 3 -k RTR 
- -t 0.000000000 -s 2 -d -1 -p ADIAN -e 28 -c 2 -a 0 -i 3 -k RTR
h -t 0.000000000 -s 2 -d -1 -p ADIAN -e 28 -c 2 -a 0 -i 3 -k RTR
+ -t 0.000115000 -s 0 -d -1 -p ADIAN -e 86 -c 2 -a 0 -i 1 -k MAC 
- -t 0.000115000 -s 0 -d -1 -p ADIAN -e 86 -c 2 -a 0 -i 1 -k MAC
h -t 0.000115000 -s 0 -d -1 -p ADIAN -e 86 -c 2 -a 0 -i 1 -k MAC
r -t 0.000803180 -s 1 -d -1 -p ADIAN -e 28 -c 2 -a 0 -i 1 -k MAC
r -t 0.000828180 -s 1 -d -1 -p ADIAN -e 28 -c 2 -a 0 -i 1 -k RTR
+ -t 0.000828180 -s 1 -d 0 -p ADIAN -e 28 -c 2 -a 0 -i 4 -k RTR 
- -t 0.000828180 -s 1 -d 0 -p ADIAN -e 28 -c 2 -a 0 -i 4 -k RTR
h -t 0.000828180 -s 1 -d 0 -p ADIAN -e 28 -c 2 -a 0 -i 4 -k RTR
+ -t 0.001373180 -s 1 -d -1 -p ADIAN -e 86 -c 2 -a 0 -i 2 -k MAC 
- -t 0.001373180 -s 1 -d -1 -p ADIAN -e 86 -c 2 -a 0 -i 2 -k MAC
h -t 0.001373180 -s 1 -d -1 -p ADIAN -e 86 -c 2 -a 0 -i 2 -k MAC
r -t 0.002061359 -s 0 -d -1 -p ADIAN -e 28 -c 2 -a 0 -i 2 -k MAC
r -t 0.002061985 -s 2 -d -1 -p ADIAN -e 28 -c 2 -a 0 -i 2 -k MAC
r -t 0.002086359 -s 0 -d -1 -p ADIAN -e 28 -c 2 -a 0 -i 2 -k RTR
+ -t 0.002086359 -s 0 -d 1 -p ADIAN -e 28 -c 2 -a 0 -i 5 -k RTR 
- -t 0.002086359 -s 0 -d 1 -p ADIAN -e 28 -c 2 -a 0 -i 5 -k RTR
h -t 0.002086359 -s 0 -d 1 -p ADIAN -e 28 -c 2 -a 0 -i 5 -k RTR
r -t 0.002086985 -s 2 -d -1 -p ADIAN -e 28 -c 2 -a 0 -i 2 -k RTR
+ -t 0.002086985 -s 2 -d 1 -p ADIAN -e 28 -c 2 -a 0 -i 6 -k RTR 
- -t 0.002086985 -s 2 -d 1 -p ADIAN -e 28 -c 2 -a 0 -i 6 -k RTR
h -t 0.002086985 -s 2 -d 1 -p ADIAN -e 28 -c 2 -a 0 -i 6 -k RTR
+ -t 0.002111180 -s 1 -d -1 -p ARP -e 86 -c 2 -a 0 -i 0 -k MAC 
- -t 0.002111180 -s 1 -d -1 -p ARP -e 86 -c 2 -a 0 -i 0 -k MAC
h -t 0.002111180 -s 1 -d -1 -p ARP -e 86 -c 2 -a 0 -i 0 -k MAC
r -t 0.002799359 -s 0 -d -1 -p ARP -e 28 -c 2 -a 0 -i 0 -k MAC
r -t 0.002799985 -s 2 -d -1 -p ARP -e 28 -c 2 -a 0 -i 0 -k MAC
+ -t 0.002969985 -s 2 -d -1 -p ADIAN -e 86 -c 2 -a 0 -i 3 -k MAC 
- -t 0.002969985 -s 2 -d -1 -p ADIAN -e 86 -c 2 -a 0 -i 3 -k MAC
h -t 0.002969985 -s 2 -d -1 -p ADIAN -e 86 -c 2 -a 0 -i 3 -k MAC
r -t 0.003658791 -s 1 -d -1 -p ADIAN -e 28 -c 2 -a 0 -i 3 -k MAC
r -t 0.003683791 -s 1 -d -1 -p ADIAN -e 28 -c 2 -a 0 -i 3 -k RTR
+ -t 0.003683791 -s 1 -d 2 -p ADIAN -e 28 -c 2 -a 0 -i 7 -k RTR 
- -t 0.003683791 -s 1 -d 2 -p ADIAN -e 28 -c 2 -a 0 -i 7 -k RTR
h -t 0.003683791 -s 1 -d 2 -p ADIAN -e 28 -c 2 -a 0 -i 7 -k RTR
+ -t 0.003788791 -s 1 -d -1 -p ARP -e 86 -c 2 -a 0 -i 0 -k MAC 
- -t 0.003788791 -s 1 -d -1 -p ARP -e 86 -c 2 -a 0 -i 0 -k MAC
h -t 0.003788791 -s 1 -d -1 -p ARP -e 86 -c 2 -a 0 -i 0 -k MAC
r -t 0.004476970 -s 0 -d -1 -p ARP -e 28 -c 2 -a 0 -i 0 -k MAC
r -t 0.004477596 -s 2 -d -1 -p ARP -e 28 -c 2 -a 0 -i 0 -k MAC
+ -t 0.004566970 -s 0 -d -1 -p ARP -e 86 -c 2 -a 0 -i 0 -k MAC 
- -t 0.004566970 -s 0 -d -1 -p ARP -e 86 -c 2 -a 0 -i 0 -k MAC
h -t 0.004566970 -s 0 -d -1 -p ARP -e 86 -c 2 -a 0 -i 0 -k MAC
r -t 0.005255150 -s 1 -d -1 -p ARP -e 28 -c 2 -a 0 -i 0 -k MAC
+ -t 0.005564970 -s 0 -d -1 -p RTS -e 44 -c 2 -a 0 -i 0 -k MAC 
- -t 0.005564970 -s 0 -d -1 -p RTS -e 44 -c 2 -a 0 -i 0 -k MAC
h -t 0.005564970 -s 0 -d -1 -p RTS -e 44 -c 2 -a 0 -i 0 -k MAC
r -t 0.005917150 -s 1 -d -1 -p RTS -e 44 -c 2 -a 0 -i 0 -k MAC
+ -t 0.005927150 -s 1 -d -1 -p CTS -e 38 -c 2 -a 0 -i 0 -k MAC 
- -t 0.005927150 -s 1 -d -1 -p CTS -e 38 -c 2 -a 0 -i 0 -k MAC
h -t 0.005927150 -s 1 -d -1 -p CTS -e 38 -c 2 -a 0 -i 0 -k MAC
r -t 0.006231329 -s 0 -d -1 -p CTS -e 38 -c 2 -a 0 -i 0 -k MAC
+ -t 0.006241329 -s 0 -d 1 -p ADIAN -e 86 -c 2 -a 0 -i 5 -k MAC 
- -t 0.006241329 -s 0 -d 1 -p ADIAN -e 86 -c 2 -a 0 -i 5 -k MAC
h -t 0.006241329 -s 0 -d 1 -p ADIAN -e 86 -c 2 -a 0 -i 5 -k MAC
r -t 0.006929509 -s 1 -d 1 -p ADIAN -e 28 -c 2 -a 0 -i 5 -k MAC
+ -t 0.006939509 -s 1 -d -1 -p ACK -e 38 -c 2 -a 0 -i 0 -k MAC 
- -t 0.006939509 -s 1 -d -1 -p ACK -e 38 -c 2 -a 0 -i 0 -k MAC
h -t 0.006939509 -s 1 -d -1 -p ACK -e 38 -c 2 -a 0 -i 0 -k MAC
r -t 0.007243688 -s 0 -d -1 -p ACK -e 38 -c 2 -a 0 -i 0 -k MAC
+ -t 0.007353509 -s 1 -d -1 -p RTS -e 44 -c 2 -a 0 -i 0 -k MAC 
- -t 0.007353509 -s 1 -d -1 -p RTS -e 44 -c 2 -a 0 -i 0 -k MAC
h -t 0.007353509 -s 1 -d -1 -p RTS -e 44 -c 2 -a 0 -i 0 -k MAC
r -t 0.007705688 -s 0 -d -1 -p RTS -e 44 -c 2 -a 0 -i 0 -k MAC
+ -t 0.007715688 -s 0 -d -1 -p CTS -e 38 -c 2 -a 0 -i 0 -k MAC 
- -t 0.007715688 -s 0 -d -1 -p CTS -e 38 -c 2 -a 0 -i 0 -k MAC
h -t 0.007715688 -s 0 -d -1 -p CTS -e 38 -c 2 -a 0 -i 0 -k MAC
r -t 0.008019868 -s 1 -d -1 -p CTS -e 38 -c 2 -a 0 -i 0 -k MAC
+ -t 0.008029868 -s 1 -d 0 -p ADIAN -e 86 -c 2 -a 0 -i 4 -k MAC 
- -t 0.008029868 -s 1 -d 0 -p ADIAN -e 86 -c 2 -a 0 -i 4 -k MAC
h -t 0.008029868 -s 1 -d 0 -p ADIAN -e 86 -c 2 -a 0 -i 4 -k MAC
r -t 0.008718047 -s 0 -d 0 -p ADIAN -e 28 -c 2 -a 0 -i 4 -k MAC
+ -t 0.008728047 -s 0 -d -1 -p ACK -e 38 -c 2 -a 0 -i 0 -k MAC 
- -t 0.008728047 -s 0 -d -1 -p ACK -e 38 -c 2 -a 0 -i 0 -k MAC
h -t 0.008728047 -s 0 -d -1 -p ACK -e 38 -c 2 -a 0 -i 0 -k MAC
r -t 0.009032227 -s 1 -d -1 -p ACK -e 38 -c 2 -a 0 -i 0 -k MAC
+ -t 0.009122227 -s 1 -d -1 -p RTS -e 44 -c 2 -a 0 -i 0 -k MAC 
- -t 0.009122227 -s 1 -d -1 -p RTS -e 44 -c 2 -a 0 -i 0 -k MAC
h -t 0.009122227 -s 1 -d -1 -p RTS -e 44 -c 2 -a 0 -i 0 -k MAC
r -t 0.009474406 -s 0 -d -1 -p RTS -e 44 -c 2 -a 0 -i 0 -k MAC
+ -t 0.009484406 -s 0 -d -1 -p CTS -e 38 -c 2 -a 0 -i 0 -k MAC 
- -t 0.009484406 -s 0 -d -1 -p CTS -e 38 -c 2 -a 0 -i 0 -k MAC
h -t 0.009484406 -s 0 -d -1 -p CTS -e 38 -c 2 -a 0 -i 0 -k MAC
r -t 0.009788586 -s 1 -d -1 -p CTS -e 38 -c 2 -a 0 -i 0 -k MAC
+ -t 0.009798586 -s 1 -d -1 -p ARP -e 86 -c 2 -a 0 -i 0 -k MAC 
- -t 0.009798586 -s 1 -d -1 -p ARP -e 86 -c 2 -a 0 -i 0 -k MAC
h -t 0.009798586 -s 1 -d -1 -p ARP -e 86 -c 2 -a 0 -i 0 -k MAC
r -t 0.010486765 -s 0 -d -1 -p ARP -e 28 -c 2 -a 0 -i 0 -k MAC
+ -t 0.010496765 -s 0 -d -1 -p ACK -e 38 -c 2 -a 0 -i 0 -k MAC 
- -t 0.010496765 -s 0 -d -1 -p ACK -e 38 -c 2 -a 0 -i 0 -k MAC
h -t 0.010496765 -s 0 -d -1 -p ACK -e 38 -c 2 -a 0 -i 0 -k MAC
r -t 0.010800945 -s 1 -d -1 -p ACK -e 38 -c 2 -a 0 -i 0 -k MAC
+ -t 0.010990765 -s 0 -d -1 -p RTS -e 44 -c 2 -a 0 -i 0 -k MAC 
- -t 0.010990765 -s 0 -d -1 -p RTS -e 44 -c 2 -a 0 -i 0 -k MAC
h -t 0.010990765 -s 0 -d -1 -p RTS -e 44 -c 2 -a 0 -i 0 -k MAC
r -t 0.011342945 -s 1 -d -1 -p RTS -e 44 -c 2 -a 0 -i 0 -k MAC
+ -t 0.011352945 -s 1 -d -1 -p CTS -e 38 -c 2 -a 0 -i 0 -k MAC 
- -t 0.011352945 -s 1 -d -1 -p CTS -e 38 -c 2 -a 0 -i 0 -k MAC
h -t 0.011352945 -s 1 -d -1 -p CTS -e 38 -c 2 -a 0 -i 0 -k MAC
r -t 0.011657124 -s 0 -d -1 -p CTS -e 38 -c 2 -a 0 -i 0 -k MAC
+ -t 0.011667124 -s 0 -d -1 -p ARP -e 86 -c 2 -a 0 -i 0 -k MAC 
- -t 0.011667124 -s 0 -d -1 -p ARP -e 86 -c 2 -a 0 -i 0 -k MAC
h -t 0.011667124 -s 0 -d -1 -p ARP -e 86 -c 2 -a 0 -i 0 -k MAC
r -t 0.012355304 -s 1 -d -1 -p ARP -e 28 -c 2 -a 0 -i 0 -k MAC
+ -t 0.012365304 -s 1 -d -1 -p ACK -e 38 -c 2 -a 0 -i 0 -k MAC 
- -t 0.012365304 -s 1 -d -1 -p ACK -e 38 -c 2 -a 0 -i 0 -k MAC
h -t 0.012365304 -s 1 -d -1 -p ACK -e 38 -c 2 -a 0 -i 0 -k MAC
r -t 0.012669483 -s 0 -d -1 -p ACK -e 38 -c 2 -a 0 -i 0 -k MAC
+ -t 0.012890068 -s 2 -d -1 -p ARP -e 86 -c 2 -a 0 -i 0 -k MAC 
- -t 0.012890068 -s 2 -d -1 -p ARP -e 86 -c 2 -a 0 -i 0 -k MAC
h -t 0.012890068 -s 2 -d -1 -p ARP -e 86 -c 2 -a 0 -i 0 -k MAC
r -t 0.013578873 -s 1 -d -1 -p ARP -e 28 -c 2 -a 0 -i 0 -k MAC
+ -t 0.013888873 -s 1 -d -1 -p RTS -e 44 -c 2 -a 0 -i 0 -k MAC 
- -t 0.013888873 -s 1 -d -1 -p RTS -e 44 -c 2 -a 0 -i 0 -k MAC
h -t 0.013888873 -s 1 -d -1 -p RTS -e 44 -c 2 -a 0 -i 0 -k MAC
r -t 0.014241679 -s 2 -d -1 -p RTS -e 44 -c 2 -a 0 -i 0 -k MAC
+ -t 0.014251679 -s 2 -d -1 -p CTS -e 38 -c 2 -a 0 -i 0 -k MAC 
- -t 0.014251679 -s 2 -d -1 -p CTS -e 38 -c 2 -a 0 -i 0 -k MAC
h -t 0.014251679 -s 2 -d -1 -p CTS -e 38 -c 2 -a 0 -i 0 -k MAC
r -t 0.014556484 -s 1 -d -1 -p CTS -e 38 -c 2 -a 0 -i 0 -k MAC
+ -t 0.014566484 -s 1 -d 2 -p ADIAN -e 86 -c 2 -a 0 -i 7 -k MAC 
- -t 0.014566484 -s 1 -d 2 -p ADIAN -e 86 -c 2 -a 0 -i 7 -k MAC
h -t 0.014566484 -s 1 -d 2 -p ADIAN -e 86 -c 2 -a 0 -i 7 -k MAC
r -t 0.015255290 -s 2 -d 2 -p ADIAN -e 28 -c 2 -a 0 -i 7 -k MAC
+ -t 0.015265290 -s 2 -d -1 -p ACK -e 38 -c 2 -a 0 -i 0 -k MAC 
- -t 0.015265290 -s 2 -d -1 -p ACK -e 38 -c 2 -a 0 -i 0 -k MAC
h -t 0.015265290 -s 2 -d -1 -p ACK -e 38 -c 2 -a 0 -i 0 -k MAC
r -t 0.015570095 -s 1 -d -1 -p ACK -e 38 -c 2 -a 0 -i 0 -k MAC
+ -t 0.015719290 -s 2 -d -1 -p RTS -e 44 -c 2 -a 0 -i 0 -k MAC 
- -t 0.015719290 -s 2 -d -1 -p RTS -e 44 -c 2 -a 0 -i 0 -k MAC
h -t 0.015719290 -s 2 -d -1 -p RTS -e 44 -c 2 -a 0 -i 0 -k MAC
r -t 0.016072095 -s 1 -d -1 -p RTS -e 44 -c 2 -a 0 -i 0 -k MAC
+ -t 0.016082095 -s 1 -d -1 -p CTS -e 38 -c 2 -a 0 -i 0 -k MAC 
- -t 0.016082095 -s 1 -d -1 -p CTS -e 38 -c 2 -a 0 -i 0 -k MAC
h -t 0.016082095 -s 1 -d -1 -p CTS -e 38 -c 2 -a 0 -i 0 -k MAC
r -t 0.016386901 -s 2 -d -1 -p CTS -e 38 -c 2 -a 0 -i 0 -k MAC
+ -t 0.016396901 -s 2 -d 1 -p ADIAN -e 86 -c 2 -a 0 -i 6 -k MAC 
- -t 0.016396901 -s 2 -d 1 -p ADIAN -e 86 -c 2 -a 0 -i 6 -k MAC
h -t 0.016396901 -s 2 -d 1 -p ADIAN -e 86 -c 2 -a 0 -i 6 -k MAC
r -t 0.017085706 -s 1 -d 1 -p ADIAN -e 28 -c 2 -a 0 -i 6 -k MAC
+ -t 0.017095706 -s 1 -d -1 -p ACK -e 38 -c 2 -a 0 -i 0 -k MAC 
- -t 0.017095706 -s 1 -d -1 -p ACK -e 38 -c 2 -a 0 -i 0 -k MAC
h -t 0.017095706 -s 1 -d -1 -p ACK -e 38 -c 2 -a 0 -i 0 -k MAC
r -t 0.017400512 -s 2 -d -1 -p ACK -e 38 -c 2 -a 0 -i 0 -k MAC
+ -t 0.017589706 -s 1 -d -1 -p RTS -e 44 -c 2 -a 0 -i 0 -k MAC 
- -t 0.017589706 -s 1 -d -1 -p RTS -e 44 -c 2 -a 0 -i 0 -k MAC
h -t 0.017589706 -s 1 -d -1 -p RTS -e 44 -c 2 -a 0 -i 0 -k MAC
r -t 0.017942512 -s 2 -d -1 -p RTS -e 44 -c 2 -a 0 -i 0 -k MAC
+ -t 0.017952512 -s 2 -d -1 -p CTS -e 38 -c 2 -a 0 -i 0 -k MAC 
- -t 0.017952512 -s 2 -d -1 -p CTS -e 38 -c 2 -a 0 -i 0 -k MAC
h -t 0.017952512 -s 2 -d -1 -p CTS -e 38 -c 2 -a 0 -i 0 -k MAC
r -t 0.018257317 -s 1 -d -1 -p CTS -e 38 -c 2 -a 0 -i 0 -k MAC
+ -t 0.018267317 -s 1 -d -1 -p ARP -e 86 -c 2 -a 0 -i 0 -k MAC 
- -t 0.018267317 -s 1 -d -1 -p ARP -e 86 -c 2 -a 0 -i 0 -k MAC
h -t 0.018267317 -s 1 -d -1 -p ARP -e 86 -c 2 -a 0 -i 0 -k MAC
r -t 0.018956123 -s 2 -d -1 -p ARP -e 28 -c 2 -a 0 -i 0 -k MAC
+ -t 0.018966123 -s 2 -d -1 -p ACK -e 38 -c 2 -a 0 -i 0 -k MAC 
- -t 0.018966123 -s 2 -d -1 -p ACK -e 38 -c 2 -a 0 -i 0 -k MAC
h -t 0.018966123 -s 2 -d -1 -p ACK -e 38 -c 2 -a 0 -i 0 -k MAC
r -t 0.019270928 -s 1 -d -1 -p ACK -e 38 -c 2 -a 0 -i 0 -k MAC
+ -t 0.019360123 -s 2 -d -1 -p RTS -e 44 -c 2 -a 0 -i 0 -k MAC 
- -t 0.019360123 -s 2 -d -1 -p RTS -e 44 -c 2 -a 0 -i 0 -k MAC
h -t 0.019360123 -s 2 -d -1 -p RTS -e 44 -c 2 -a 0 -i 0 -k MAC
r -t 0.019712928 -s 1 -d -1 -p RTS -e 44 -c 2 -a 0 -i 0 -k MAC
+ -t 0.019722928 -s 1 -d -1 -p CTS -e 38 -c 2 -a 0 -i 0 -k MAC 
- -t 0.019722928 -s 1 -d -1 -p CTS -e 38 -c 2 -a 0 -i 0 -k MAC
h -t 0.019722928 -s 1 -d -1 -p CTS -e 38 -c 2 -a 0 -i 0 -k MAC
r -t 0.020027734 -s 2 -d -1 -p CTS -e 38 -c 2 -a 0 -i 0 -k MAC
+ -t 0.020037734 -s 2 -d -1 -p ARP -e 86 -c 2 -a 0 -i 0 -k MAC 
- -t 0.020037734 -s 2 -d -1 -p ARP -e 86 -c 2 -a 0 -i 0 -k MAC
h -t 0.020037734 -s 2 -d -1 -p ARP -e 86 -c 2 -a 0 -i 0 -k MAC
r -t 0.020726540 -s 1 -d -1 -p ARP -e 28 -c 2 -a 0 -i 0 -k MAC
+ -t 0.020736540 -s 1 -d -1 -p ACK -e 38 -c 2 -a 0 -i 0 -k MAC 
- -t 0.020736540 -s 1 -d -1 -p ACK -e 38 -c 2 -a 0 -i 0 -k MAC
h -t 0.020736540 -s 1 -d -1 -p ACK -e 38 -c 2 -a 0 -i 0 -k MAC
r -t 0.021041345 -s 2 -d -1 -p ACK -e 38 -c 2 -a 0 -i 0 -k MAC
n -t 1.000000 -s 1 -x 100.000000 -y 150.000000 -U -6.401844 -V -7.682213 -T 7.810250
+ -t 2.000000000 -s 0 -d -1 -p ADIAN -e 28 -c 2 -a 0 -i 8 -k RTR 
- -t 2.000000000 -s 0 -d -1 -p ADIAN -e 28 -c 2 -a 0 -i 8 -k RTR
h -t 2.000000000 -s 0 -d -1 -p ADIAN -e 28 -c 2 -a 0 -i 8 -k RTR
+ -t 2.000000000 -s 1 -d -1 -p ADIAN -e 28 -c 2 -a 0 -i 9 -k RTR 
- -t 2.000000000 -s 1 -d -1 -p ADIAN -e 28 -c 2 -a 0 -i 9 -k RTR
h -t 2.000000000 -s 1 -d -1 -p ADIAN -e 28 -c 2 -a 0 -i 9 -k RTR
+ -t 2.000000000 -s 2 -d -1 -p ADIAN -e 28 -c 2 -a 0 -i 10 -k RTR 
- -t 2.000000000 -s 2 -d -1 -p ADIAN -e 28 -c 2 -a 0 -i 10 -k RTR
h -t 2.000000000 -s 2 -d -1 -p ADIAN -e 28 -c 2 -a 0 -i 10 -k RTR
+ -t 2.000275000 -s 1 -d -1 -p ADIAN -e 86 -c 2 -a 0 -i 9 -k MAC 
- -t 2.000275000 -s 1 -d -1 -p ADIAN -e 86 -c 2 -a 0 -i 9 -k MAC
h -t 2.000275000 -s 1 -d -1 -p ADIAN -e 86 -c 2 -a 0 -i 9 -k MAC
r -t 2.000963198 -s 0 -d -1 -p ADIAN -e 28 -c 2 -a 0 -i 9 -k MAC
r -t 2.000963815 -s 2 -d -1 -p ADIAN -e 28 -c 2 -a 0 -i 9 -k MAC
r -t 2.000988198 -s 0 -d -1 -p ADIAN -e 28 -c 2 -a 0 -i 9 -k RTR
+ -t 2.000988198 -s 0 -d 1 -p ADIAN -e 28 -c 2 -a 0 -i 11 -k RTR 
- -t 2.000988198 -s 0 -d 1 -p ADIAN -e 28 -c 2 -a 0 -i 11 -k RTR
h -t 2.000988198 -s 0 -d 1 -p ADIAN -e 28 -c 2 -a 0 -i 11 -k RTR
r -t 2.000988815 -s 2 -d -1 -p ADIAN -e 28 -c 2 -a 0 -i 9 -k RTR
+ -t 2.000988815 -s 2 -d 1 -p ADIAN -e 28 -c 2 -a 0 -i 12 -k RTR 
- -t 2.000988815 -s 2 -d 1 -p ADIAN -e 28 -c 2 -a 0 -i 12 -k RTR
h -t 2.000988815 -s 2 -d 1 -p ADIAN -e 28 -c 2 -a 0 -i 12 -k RTR
+ -t 2.001033815 -s 2 -d -1 -p ADIAN -e 86 -c 2 -a 0 -i 10 -k MAC 
- -t 2.001033815 -s 2 -d -1 -p ADIAN -e 86 -c 2 -a 0 -i 10 -k MAC
h -t 2.001033815 -s 2 -d -1 -p ADIAN -e 86 -c 2 -a 0 -i 10 -k MAC
r -t 2.001722630 -s 1 -d -1 -p ADIAN -e 28 -c 2 -a 0 -i 10 -k MAC
r -t 2.001747630 -s 1 -d -1 -p ADIAN -e 28 -c 2 -a 0 -i 10 -k RTR
+ -t 2.001747630 -s 1 -d 2 -p ADIAN -e 28 -c 2 -a 0 -i 13 -k RTR 
- -t 2.001747630 -s 1 -d 2 -p ADIAN -e 28 -c 2 -a 0 -i 13 -k RTR
h -t 2.001747630 -s 1 -d 2 -p ADIAN -e 28 -c 2 -a 0 -i 13 -k RTR
+ -t 2.002011815 -s 2 -d -1 -p RTS -e 44 -c 2 -a 0 -i 0 -k MAC 
- -t 2.002011815 -s 2 -d -1 -p RTS -e 44 -c 2 -a 0 -i 0 -k MAC
h -t 2.002011815 -s 2 -d -1 -p RTS -e 44 -c 2 -a 0 -i 0 -k MAC
r -t 2.002364630 -s 1 -d -1 -p RTS -e 44 -c 2 -a 0 -i 0 -k MAC
+ -t 2.002374630 -s 1 -d -1 -p CTS -e 38 -c 2 -a 0 -i 0 -k MAC 
- -t 2.002374630 -s 1 -d -1 -p CTS -e 38 -c 2 -a 0 -i 0 -k MAC
h -t 2.002374630 -s 1 -d -1 -p CTS -e 38 -c 2 -a 0 -i 0 -k MAC
r -t 2.002679445 -s 2 -d -1 -p CTS -e 38 -c 2 -a 0 -i 0 -k MAC
+ -t 2.002689445 -s 2 -d 1 -p ADIAN -e 86 -c 2 -a 0 -i 12 -k MAC 
- -t 2.002689445 -s 2 -d 1 -p ADIAN -e 86 -c 2 -a 0 -i 12 -k MAC
h -t 2.002689445 -s 2 -d 1 -p ADIAN -e 86 -c 2 -a 0 -i 12 -k MAC
r -t 2.003378260 -s 1 -d 1 -p ADIAN -e 28 -c 2 -a 0 -i 12 -k MAC
+ -t 2.003388260 -s 1 -d -1 -p ACK -e 38 -c 2 -a 0 -i 0 -k MAC 
- -t 2.003388260 -s 1 -d -1 -p ACK -e 38 -c 2 -a 0 -i 0 -k MAC
h -t 2.003388260 -s 1 -d -1 -p ACK -e 38 -c 2 -a 0 -i 0 -k MAC
r -t 2.003693075 -s 2 -d -1 -p ACK -e 38 -c 2 -a 0 -i 0 -k MAC
+ -t 2.003892388 -s 0 -d -1 -p ADIAN -e 86 -c 2 -a 0 -i 8 -k MAC 
- -t 2.003892388 -s 0 -d -1 -p ADIAN -e 86 -c 2 -a 0 -i 8 -k MAC
h -t 2.003892388 -s 0 -d -1 -p ADIAN -e 86 -c 2 -a 0 -i 8 -k MAC
r -t 2.004580586 -s 1 -d -1 -p ADIAN -e 28 -c 2 -a 0 -i 8 -k MAC
r -t 2.004605586 -s 1 -d -1 -p ADIAN -e 28 -c 2 -a 0 -i 8 -k RTR
+ -t 2.004605586 -s 1 -d 0 -p ADIAN -e 28 -c 2 -a 0 -i 14 -k RTR 
- -t 2.004605586 -s 1 -d 0 -p ADIAN -e 28 -c 2 -a 0 -i 14 -k RTR
h -t 2.004605586 -s 1 -d 0 -p ADIAN -e 28 -c 2 -a 0 -i 14 -k RTR
+ -t 2.004750586 -s 1 -d -1 -p RTS -e 44 -c 2 -a 0 -i 0 -k MAC 
- -t 2.004750586 -s 1 -d -1 -p RTS -e 44 -c 2 -a 0 -i 0 -k MAC
h -t 2.004750586 -s 1 -d -1 -p RTS -e 44 -c 2 -a 0 -i 0 -k MAC
r -t 2.005103401 -s 2 -d -1 -p RTS -e 44 -c 2 -a 0 -i 0 -k MAC
+ -t 2.005113401 -s 2 -d -1 -p CTS -e 38 -c 2 -a 0 -i 0 -k MAC 
- -t 2.005113401 -s 2 -d -1 -p CTS -e 38 -c 2 -a 0 -i 0 -k MAC
h -t 2.005113401 -s 2 -d -1 -p CTS -e 38 -c 2 -a 0 -i 0 -k MAC
r -t 2.005418216 -s 1 -d -1 -p CTS -e 38 -c 2 -a 0 -i 0 -k MAC
+ -t 2.005428216 -s 1 -d 2 -p ADIAN -e 86 -c 2 -a 0 -i 13 -k MAC 
- -t 2.005428216 -s 1 -d 2 -p ADIAN -e 86 -c 2 -a 0 -i 13 -k MAC
h -t 2.005428216 -s 1 -d 2 -p ADIAN -e 86 -c 2 -a 0 -i 13 -k MAC
r -t 2.006117031 -s 2 -d 2 -p ADIAN -e 28 -c 2 -a 0 -i 13 -k MAC
+ -t 2.006127031 -s 2 -d -1 -p ACK -e 38 -c 2 -a 0 -i 0 -k MAC 
- -t 2.006127031 -s 2 -d -1 -p ACK -e 38 -c 2 -a 0 -i 0 -k MAC
h -t 2.006127031 -s 2 -d -1 -p ACK -e 38 -c 2 -a 0 -i 0 -k MAC
r -t 2.006431846 -s 1 -d -1 -p ACK -e 38 -c 2 -a 0 -i 0 -k MAC
+ -t 2.006881846 -s 1 -d -1 -p RTS -e 44 -c 2 -a 0 -i 0 -k MAC 
- -t 2.006881846 -s 1 -d -1 -p RTS -e 44 -c 2 -a 0 -i 0 -k MAC
h -t 2.006881846 -s 1 -d -1 -p RTS -e 44 -c 2 -a 0 -i 0 -k MAC
r -t 2.007234044 -s 0 -d -1 -p RTS -e 44 -c 2 -a 0 -i 0 -k MAC
+ -t 2.007244044 -s 0 -d -1 -p CTS -e 38 -c 2 -a 0 -i 0 -k MAC 
- -t 2.007244044 -s 0 -d -1 -p CTS -e 38 -c 2 -a 0 -i 0 -k MAC
h -t 2.007244044 -s 0 -d -1 -p CTS -e 38 -c 2 -a 0 -i 0 -k MAC
r -t 2.007548242 -s 1 -d -1 -p CTS -e 38 -c 2 -a 0 -i 0 -k MAC
+ -t 2.007558242 -s 1 -d 0 -p ADIAN -e 86 -c 2 -a 0 -i 14 -k MAC 
- -t 2.007558242 -s 1 -d 0 -p ADIAN -e 86 -c 2 -a 0 -i 14 -k MAC
h -t 2.007558242 -s 1 -d 0 -p ADIAN -e 86 -c 2 -a 0 -i 14 -k MAC
r -t 2.008246439 -s 0 -d 0 -p ADIAN -e 28 -c 2 -a 0 -i 14 -k MAC
+ -t 2.008256439 -s 0 -d -1 -p ACK -e 38 -c 2 -a 0 -i 0 -k MAC 
- -t 2.008256439 -s 0 -d -1 -p ACK -e 38 -c 2 -a 0 -i 0 -k MAC
h -t 2.008256439 -s 0 -d -1 -p ACK -e 38 -c 2 -a 0 -i 0 -k MAC
r -t 2.008560637 -s 1 -d -1 -p ACK -e 38 -c 2 -a 0 -i 0 -k MAC
+ -t 2.009050439 -s 0 -d -1 -p RTS -e 44 -c 2 -a 0 -i 0 -k MAC 
- -t 2.009050439 -s 0 -d -1 -p RTS -e 44 -c 2 -a 0 -i 0 -k MAC
h -t 2.009050439 -s 0 -d -1 -p RTS -e 44 -c 2 -a 0 -i 0 -k MAC
r -t 2.009402637 -s 1 -d -1 -p RTS -e 44 -c 2 -a 0 -i 0 -k MAC
+ -t 2.009412637 -s 1 -d -1 -p CTS -e 38 -c 2 -a 0 -i 0 -k MAC 
- -t 2.009412637 -s 1 -d -1 -p CTS -e 38 -c 2 -a 0 -i 0 -k MAC
h -t 2.009412637 -s 1 -d -1 -p CTS -e 38 -c 2 -a 0 -i 0 -k MAC
r -t 2.009716835 -s 0 -d -1 -p CTS -e 38 -c 2 -a 0 -i 0 -k MAC
+ -t 2.009726835 -s 0 -d 1 -p ADIAN -e 86 -c 2 -a 0 -i 11 -k MAC 
- -t 2.009726835 -s 0 -d 1 -p ADIAN -e 86 -c 2 -a 0 -i 11 -k MAC
h -t 2.009726835 -s 0 -d 1 -p ADIAN -e 86 -c 2 -a 0 -i 11 -k MAC
r -t 2.010415033 -s 1 -d 1 -p ADIAN -e 28 -c 2 -a 0 -i 11 -k MAC
+ -t 2.010425033 -s 1 -d -1 -p ACK -e 38 -c 2 -a 0 -i 0 -k MAC 
- -t 2.010425033 -s 1 -d -1 -p ACK -e 38 -c 2 -a 0 -i 0 -k MAC
h -t 2.010425033 -s 1 -d -1 -p ACK -e 38 -c 2 -a 0 -i 0 -k MAC
r -t 2.010729230 -s 0 -d -1 -p ACK -e 38 -c 2 -a 0 -i 0 -k MAC
+ -t 3.000000000 -s 0 -d -1 -p tcp -e 40 -c 2 -a 0 -i 15 -k AGT 
- -t 3.000000000 -s 0 -d -1 -p tcp -e 40 -c 2 -a 0 -i 15 -k AGT
h -t 3.000000000 -s 0 -d -1 -p tcp -e 40 -c 2 -a 0 -i 15 -k AGT
d -t 3.000000000 -s 0 -d -1 -p tcp -e 40 -c 2 -a 0 -i 15 -k RTR
+ -t 3.000000000 -s 0 -d -1 -p ADIAN -e 36 -c 2 -a 0 -i 16 -k RTR 
- -t 3.000000000 -s 0 -d -1 -p ADIAN -e 36 -c 2 -a 0 -i 16 -k RTR
h -t 3.000000000 -s 0 -d -1 -p ADIAN -e 36 -c 2 -a 0 -i 16 -k RTR
+ -t 3.000000000 -s 0 -d -1 -p ADIAN -e 36 -c 2 -a 0 -i 17 -k RTR 
- -t 3.000000000 -s 0 -d -1 -p ADIAN -e 36 -c 2 -a 0 -i 17 -k RTR
h -t 3.000000000 -s 0 -d -1 -p ADIAN -e 36 -c 2 -a 0 -i 17 -k RTR
+ -t 3.000115000 -s 0 -d -1 -p ADIAN -e 94 -c 2 -a 0 -i 16 -k MAC 
- -t 3.000115000 -s 0 -d -1 -p ADIAN -e 94 -c 2 -a 0 -i 16 -k MAC
h -t 3.000115000 -s 0 -d -1 -p ADIAN -e 94 -c 2 -a 0 -i 16 -k MAC
r -t 3.000867219 -s 1 -d -1 -p ADIAN -e 36 -c 2 -a 0 -i 16 -k MAC
+ -t 3.000892219 -s 1 -d -1 -p ADIAN -e 36 -c 2 -a 0 -i 18 -k RTR 
- -t 3.000892219 -s 1 -d -1 -p ADIAN -e 36 -c 2 -a 0 -i 18 -k RTR
h -t 3.000892219 -s 1 -d -1 -p ADIAN -e 36 -c 2 -a 0 -i 18 -k RTR
+ -t 3.001217000 -s 0 -d -1 -p ADIAN -e 94 -c 2 -a 0 -i 17 -k MAC 
- -t 3.001217000 -s 0 -d -1 -p ADIAN -e 94 -c 2 -a 0 -i 17 -k MAC
h -t 3.001217000 -s 0 -d -1 -p ADIAN -e 94 -c 2 -a 0 -i 17 -k MAC
r -t 3.001969219 -s 1 -d -1 -p ADIAN -e 36 -c 2 -a 0 -i 17 -k MAC
+ -t 3.001994219 -s 1 -d -1 -p ADIAN -e 36 -c 2 -a 0 -i 19 -k RTR 
- -t 3.001994219 -s 1 -d -1 -p ADIAN -e 36 -c 2 -a 0 -i 19 -k RTR
h -t 3.001994219 -s 1 -d -1 -p ADIAN -e 36 -c 2 -a 0 -i 19 -k RTR
+ -t 3.002139219 -s 1 -d -1 -p ADIAN -e 94 -c 2 -a 0 -i 18 -k MAC 
- -t 3.002139219 -s 1 -d -1 -p ADIAN -e 94 -c 2 -a 0 -i 18 -k MAC
h -t 3.002139219 -s 1 -d -1 -p ADIAN -e 94 -c 2 -a 0 -i 18 -k MAC
r -t 3.002891438 -s 0 -d -1 -p ADIAN -e 36 -c 2 -a 0 -i 18 -k MAC
r -t 3.002892045 -s 2 -d -1 -p ADIAN -e 36 -c 2 -a 0 -i 18 -k MAC
+ -t 3.003021219 -s 1 -d -1 -p ADIAN -e 94 -c 2 -a 0 -i 19 -k MAC 
- -t 3.003021219 -s 1 -d -1 -p ADIAN -e 94 -c 2 -a 0 -i 19 -k MAC
h -t 3.003021219 -s 1 -d -1 -p ADIAN -e 94 -c 2 -a 0 -i 19 -k MAC
r -t 3.003773438 -s 0 -d -1 -p ADIAN -e 36 -c 2 -a 0 -i 19 -k MAC
r -t 3.003774045 -s 2 -d -1 -p ADIAN -e 36 -c 2 -a 0 -i 19 -k MAC
n -t 4.000000 -s 1 -x 80.794468 -y 126.953362 -U -2.546268 -V -9.670394 -T 12.093960
+ -t 4.000000000 -s 0 -d -1 -p ADIAN -e 28 -c 2 -a 0 -i 20 -k RTR 
- -t 4.000000000 -s 0 -d -1 -p ADIAN -e 28 -c 2 -a 0 -i 20 -k RTR
h -t 4.000000000 -s 0 -d -1 -p ADIAN -e 28 -c 2 -a 0 -i 20 -k RTR
+ -t 4.000000000 -s 1 -d -1 -p ADIAN -e 28 -c 2 -a 0 -i 21 -k RTR 
- -t 4.000000000 -s 1 -d -1 -p ADIAN -e 28 -c 2 -a 0 -i 21 -k RTR
h -t 4.000000000 -s 1 -d -1 -p ADIAN -e 28 -c 2 -a 0 -i 21 -k RTR
+ -t 4.000000000 -s 2 -d -1 -p ADIAN -e 28 -c 2 -a 0 -i 22 -k RTR 
- -t 4.000000000 -s 2 -d -1 -p ADIAN -e 28 -c 2 -a 0 -i 22 -k RTR
h -t 4.000000000 -s 2 -d -1 -p ADIAN -e 28 -c 2 -a 0 -i 22 -k RTR
+ -t 4.000175000 -s 1 -d -1 -p ADIAN -e 86 -c 2 -a 0 -i 21 -k MAC 
- -t 4.000175000 -s 1 -d -1 -p ADIAN -e 86 -c 2 -a 0 -i 21 -k MAC
h -t 4.000175000 -s 1 -d -1 -p ADIAN -e 86 -c 2 -a 0 -i 21 -k MAC
r -t 4.000863244 -s 0 -d -1 -p ADIAN -e 28 -c 2 -a 0 -i 21 -k MAC
r -t 4.000888244 -s 0 -d -1 -p ADIAN -e 28 -c 2 -a 0 -i 21 -k RTR
+ -t 4.000888244 -s 0 -d 1 -p ADIAN -e 28 -c 2 -a 0 -i 23 -k RTR 
- -t 4.000888244 -s 0 -d 1 -p ADIAN -e 28 -c 2 -a 0 -i 23 -k RTR
h -t 4.000888244 -s 0 -d 1 -p ADIAN -e 28 -c 2 -a 0 -i 23 -k RTR
+ -t 4.001013244 -s 0 -d -1 -p ADIAN -e 86 -c 2 -a 0 -i 20 -k MAC 
- -t 4.001013244 -s 0 -d -1 -p ADIAN -e 86 -c 2 -a 0 -i 20 -k MAC
h -t 4.001013244 -s 0 -d -1 -p ADIAN -e 86 -c 2 -a 0 -i 20 -k MAC
r -t 4.001701487 -s 1 -d -1 -p ADIAN -e 28 -c 2 -a 0 -i 20 -k MAC
r -t 4.001726487 -s 1 -d -1 -p ADIAN -e 28 -c 2 -a 0 -i 20 -k RTR
+ -t 4.001726487 -s 1 -d 0 -p ADIAN -e 28 -c 2 -a 0 -i 24 -k RTR 
- -t 4.001726487 -s 1 -d 0 -p ADIAN -e 28 -c 2 -a 0 -i 24 -k RTR
h -t 4.001726487 -s 1 -d 0 -p ADIAN -e 28 -c 2 -a 0 -i 24 -k RTR
+ -t 4.001871487 -s 1 -d -1 -p RTS -e 44 -c 2 -a 0 -i 0 -k MAC 
- -t 4.001871487 -s 1 -d -1 -p RTS -e 44 -c 2 -a 0 -i 0 -k MAC
h -t 4.001871487 -s 1 -d -1 -p RTS -e 44 -c 2 -a 0 -i 0 -k MAC
r -t 4.002223731 -s 0 -d -1 -p RTS -e 44 -c 2 -a 0 -i 0 -k MAC
+ -t 4.002233731 -s 0 -d -1 -p CTS -e 38 -c 2 -a 0 -i 0 -k MAC 
- -t 4.002233731 -s 0 -d -1 -p CTS -e 38 -c 2 -a 0 -i 0 -k MAC
h -t 4.002233731 -s 0 -d -1 -p CTS -e 38 -c 2 -a 0 -i 0 -k MAC
r -t 4.002537974 -s 1 -d -1 -p CTS -e 38 -c 2 -a 0 -i 0 -k MAC
+ -t 4.002547974 -s 1 -d 0 -p ADIAN -e 86 -c 2 -a 0 -i 24 -k MAC 
- -t 4.002547974 -s 1 -d 0 -p ADIAN -e 86 -c 2 -a 0 -i 24 -k MAC
h -t 4.002547974 -s 1 -d 0 -p ADIAN -e 86 -c 2 -a 0 -i 24 -k MAC
r -t 4.003236218 -s 0 -d 0 -p ADIAN -e 28 -c 2 -a 0 -i 24 -k MAC
+ -t 4.003246218 -s 0 -d -1 -p ACK -e 38 -c 2 -a 0 -i 0 -k MAC 
- -t 4.003246218 -s 0 -d -1 -p ACK -e 38 -c 2 -a 0 -i 0 -k MAC
h -t 4.003246218 -s 0 -d -1 -p ACK -e 38 -c 2 -a 0 -i 0 -k MAC
r -t 4.003550461 -s 1 -d -1 -p ACK -e 38 -c 2 -a 0 -i 0 -k MAC
+ -t 4.003680218 -s 0 -d -1 -p RTS -e 44 -c 2 -a 0 -i 0 -k MAC 
- -t 4.003680218 -s 0 -d -1 -p RTS -e 44 -c 2 -a 0 -i 0 -k MAC
h -t 4.003680218 -s 0 -d -1 -p RTS -e 44 -c 2 -a 0 -i 0 -k MAC
r -t 4.004032461 -s 1 -d -1 -p RTS -e 44 -c 2 -a 0 -i 0 -k MAC
+ -t 4.004042461 -s 1 -d -1 -p CTS -e 38 -c 2 -a 0 -i 0 -k MAC 
- -t 4.004042461 -s 1 -d -1 -p CTS -e 38 -c 2 -a 0 -i 0 -k MAC
h -t 4.004042461 -s 1 -d -1 -p CTS -e 38 -c 2 -a 0 -i 0 -k MAC
r -t 4.004346705 -s 0 -d -1 -p CTS -e 38 -c 2 -a 0 -i 0 -k MAC
+ -t 4.004356705 -s 0 -d 1 -p ADIAN -e 86 -c 2 -a 0 -i 23 -k MAC 
- -t 4.004356705 -s 0 -d 1 -p ADIAN -e 86 -c 2 -a 0 -i 23 -k MAC
h -t 4.004356705 -s 0 -d 1 -p ADIAN -e 86 -c 2 -a 0 -i 23 -k MAC
r -t 4.005044949 -s 1 -d 1 -p ADIAN -e 28 -c 2 -a 0 -i 23 -k MAC
+ -t 4.005054949 -s 1 -d -1 -p ACK -e 38 -c 2 -a 0 -i 0 -k MAC 
- -t 4.005054949 -s 1 -d -1 -p ACK -e 38 -c 2 -a 0 -i 0 -k MAC
h -t 4.005054949 -s 1 -d -1 -p ACK -e 38 -c 2 -a 0 -i 0 -k MAC
r -t 4.005359192 -s 0 -d -1 -p ACK -e 38 -c 2 -a 0 -i 0 -k MAC
+ -t 4.006193786 -s 2 -d -1 -p ADIAN -e 86 -c 2 -a 0 -i 22 -k MAC 
- -t 4.006193786 -s 2 -d -1 -p ADIAN -e 86 -c 2 -a 0 -i 22 -k MAC
h -t 4.006193786 -s 2 -d -1 -p ADIAN -e 86 -c 2 -a 0 -i 22 -k MAC
+ -t 6.000000000 -s 0 -d -1 -p ADIAN -e 28 -c 2 -a 0 -i 25 -k RTR 
- -t 6.000000000 -s 0 -d -1 -p ADIAN -e 28 -c 2 -a 0 -i 25 -k RTR
h -t 6.000000000 -s 0 -d -1 -p ADIAN -e 28 -c 2 -a 0 -i 25 -k RTR
+ -t 6.000000000 -s 1 -d -1 -p ADIAN -e 28 -c 2 -a 0 -i 26 -k RTR 
- -t 6.000000000 -s 1 -d -1 -p ADIAN -e 28 -c 2 -a 0 -i 26 -k RTR
h -t 6.000000000 -s 1 -d -1 -p ADIAN -e 28 -c 2 -a 0 -i 26 -k RTR
+ -t 6.000000000 -s 2 -d -1 -p ADIAN -e 28 -c 2 -a 0 -i 27 -k RTR 
- -t 6.000000000 -s 2 -d -1 -p ADIAN -e 28 -c 2 -a 0 -i 27 -k RTR
h -t 6.000000000 -s 2 -d -1 -p ADIAN -e 28 -c 2 -a 0 -i 27 -k RTR
+ -t 6.000355000 -s 2 -d -1 -p ADIAN -e 86 -c 2 -a 0 -i 27 -k MAC 
- -t 6.000355000 -s 2 -d -1 -p ADIAN -e 86 -c 2 -a 0 -i 27 -k MAC
h -t 6.000355000 -s 2 -d -1 -p ADIAN -e 86 -c 2 -a 0 -i 27 -k MAC
+ -t 6.001517943 -s 0 -d -1 -p ADIAN -e 86 -c 2 -a 0 -i 25 -k MAC 
- -t 6.001517943 -s 0 -d -1 -p ADIAN -e 86 -c 2 -a 0 -i 25 -k MAC
h -t 6.001517943 -s 0 -d -1 -p ADIAN -e 86 -c 2 -a 0 -i 25 -k MAC
r -t 6.002206252 -s 1 -d -1 -p ADIAN -e 28 -c 2 -a 0 -i 25 -k MAC
r -t 6.002231252 -s 1 -d -1 -p ADIAN -e 28 -c 2 -a 0 -i 25 -k RTR
+ -t 6.002231252 -s 1 -d 0 -p ADIAN -e 28 -c 2 -a 0 -i 28 -k RTR 
- -t 6.002231252 -s 1 -d 0 -p ADIAN -e 28 -c 2 -a 0 -i 28 -k RTR
h -t 6.002231252 -s 1 -d 0 -p ADIAN -e 28 -c 2 -a 0 -i 28 -k RTR
+ -t 6.002416252 -s 1 -d -1 -p ADIAN -e 86 -c 2 -a 0 -i 26 -k MAC 
- -t 6.002416252 -s 1 -d -1 -p ADIAN -e 86 -c 2 -a 0 -i 26 -k MAC
h -t 6.002416252 -s 1 -d -1 -p ADIAN -e 86 -c 2 -a 0 -i 26 -k MAC
r -t 6.003104560 -s 0 -d -1 -p ADIAN -e 28 -c 2 -a 0 -i 26 -k MAC
r -t 6.003129560 -s 0 -d -1 -p ADIAN -e 28 -c 2 -a 0 -i 26 -k RTR
+ -t 6.003129560 -s 0 -d 1 -p ADIAN -e 28 -c 2 -a 0 -i 29 -k RTR 
- -t 6.003129560 -s 0 -d 1 -p ADIAN -e 28 -c 2 -a 0 -i 29 -k RTR
h -t 6.003129560 -s 0 -d 1 -p ADIAN -e 28 -c 2 -a 0 -i 29 -k RTR
+ -t 6.003274560 -s 0 -d -1 -p RTS -e 44 -c 2 -a 0 -i 0 -k MAC 
- -t 6.003274560 -s 0 -d -1 -p RTS -e 44 -c 2 -a 0 -i 0 -k MAC
h -t 6.003274560 -s 0 -d -1 -p RTS -e 44 -c 2 -a 0 -i 0 -k MAC
r -t 6.003626869 -s 1 -d -1 -p RTS -e 44 -c 2 -a 0 -i 0 -k MAC
+ -t 6.003636869 -s 1 -d -1 -p CTS -e 38 -c 2 -a 0 -i 0 -k MAC 
- -t 6.003636869 -s 1 -d -1 -p CTS -e 38 -c 2 -a 0 -i 0 -k MAC
h -t 6.003636869 -s 1 -d -1 -p CTS -e 38 -c 2 -a 0 -i 0 -k MAC
r -t 6.003941177 -s 0 -d -1 -p CTS -e 38 -c 2 -a 0 -i 0 -k MAC
+ -t 6.003951177 -s 0 -d 1 -p ADIAN -e 86 -c 2 -a 0 -i 29 -k MAC 
- -t 6.003951177 -s 0 -d 1 -p ADIAN -e 86 -c 2 -a 0 -i 29 -k MAC
h -t 6.003951177 -s 0 -d 1 -p ADIAN -e 86 -c 2 -a 0 -i 29 -k MAC
r -t 6.004639485 -s 1 -d 1 -p ADIAN -e 28 -c 2 -a 0 -i 29 -k MAC
+ -t 6.004649485 -s 1 -d -1 -p ACK -e 38 -c 2 -a 0 -i 0 -k MAC 
- -t 6.004649485 -s 1 -d -1 -p ACK -e 38 -c 2 -a 0 -i 0 -k MAC
h -t 6.004649485 -s 1 -d -1 -p ACK -e 38 -c 2 -a 0 -i 0 -k MAC
r -t 6.004953794 -s 0 -d -1 -p ACK -e 38 -c 2 -a 0 -i 0 -k MAC
+ -t 6.005363485 -s 1 -d -1 -p RTS -e 44 -c 2 -a 0 -i 0 -k MAC 
- -t 6.005363485 -s 1 -d -1 -p RTS -e 44 -c 2 -a 0 -i 0 -k MAC
h -t 6.005363485 -s 1 -d -1 -p RTS -e 44 -c 2 -a 0 -i 0 -k MAC
r -t 6.005715794 -s 0 -d -1 -p RTS -e 44 -c 2 -a 0 -i 0 -k MAC
+ -t 6.005725794 -s 0 -d -1 -p CTS -e 38 -c 2 -a 0 -i 0 -k MAC 
- -t 6.005725794 -s 0 -d -1 -p CTS -e 38 -c 2 -a 0 -i 0 -k MAC
h -t 6.005725794 -s 0 -d -1 -p CTS -e 38 -c 2 -a 0 -i 0 -k MAC
r -t 6.006030102 -s 1 -d -1 -p CTS -e 38 -c 2 -a 0 -i 0 -k MAC
+ -t 6.006040102 -s 1 -d 0 -p ADIAN -e 86 -c 2 -a 0 -i 28 -k MAC 
- -t 6.006040102 -s 1 -d 0 -p ADIAN -e 86 -c 2 -a 0 -i 28 -k MAC
h -t 6.006040102 -s 1 -d 0 -p ADIAN -e 86 -c 2 -a 0 -i 28 -k MAC
r -t 6.006728411 -s 0 -d 0 -p ADIAN -e 28 -c 2 -a 0 -i 28 -k MAC
+ -t 6.006738411 -s 0 -d -1 -p ACK -e 38 -c 2 -a 0 -i 0 -k MAC 
- -t 6.006738411 -s 0 -d -1 -p ACK -e 38 -c 2 -a 0 -i 0 -k MAC
h -t 6.006738411 -s 0 -d -1 -p ACK -e 38 -c 2 -a 0 -i 0 -k MAC
r -t 6.007042719 -s 1 -d -1 -p ACK -e 38 -c 2 -a 0 -i 0 -k MAC
+ -t 8.000000000 -s 0 -d -1 -p ADIAN -e 28 -c 2 -a 0 -i 30 -k RTR 
- -t 8.000000000 -s 0 -d -1 -p ADIAN -e 28 -c 2 -a 0 -i 30 -k RTR
h -t 8.000000000 -s 0 -d -1 -p ADIAN -e 28 -c 2 -a 0 -i 30 -k RTR
+ -t 8.000000000 -s 1 -d -1 -p ADIAN -e 28 -c 2 -a 0 -i 31 -k RTR 
- -t 8.000000000 -s 1 -d -1 -p ADIAN -e 28 -c 2 -a 0 -i 31 -k RTR
h -t 8.000000000 -s 1 -d -1 -p ADIAN -e 28 -c 2 -a 0 -i 31 -k RTR
+ -t 8.000000000 -s 2 -d -1 -p ADIAN -e 28 -c 2 -a 0 -i 32 -k RTR 
- -t 8.000000000 -s 2 -d -1 -p ADIAN -e 28 -c 2 -a 0 -i 32 -k RTR
h -t 8.000000000 -s 2 -d -1 -p ADIAN -e 28 -c 2 -a 0 -i 32 -k RTR
+ -t 8.000235000 -s 1 -d -1 -p ADIAN -e 86 -c 2 -a 0 -i 31 -k MAC 
- -t 8.000235000 -s 1 -d -1 -p ADIAN -e 86 -c 2 -a 0 -i 31 -k MAC